56
Lattice="9.49288 0.0 0.0 0.0 6.09023 0.0 0.0 0.0 10.4437" Properties=species:S:1:pos:R:3 volume=603.790218694937 potential_energy=-477.8357090556379 energy=-477.8357090556379 state=8 converged=T pbc="T T T"
Li       0.00000000       0.00000000       5.22185000
Li       2.37322000       0.00000000       0.00000000
Li       2.37322000       3.04511500       0.00000000
Li       0.00000000       3.04511500       5.22185000
Fe       2.25569815       4.56767250       7.49878547
Fe       0.11752185       4.56767250       2.27693547
Fe       4.62891815       1.52255750       8.16676453
Fe       2.49074185       1.52255750       2.94491453
P        1.98315756       1.52255750       6.21139058
P        4.35637756       4.56767250       9.45415943
P        0.39006244       1.52255750       0.98954058
P        2.76328244       4.56767250       4.23230942
O        3.52119398       1.52255750       6.23196466
O        1.14797398       4.56767250       9.43358534
O        3.59846602       1.52255750       1.01011466
O        1.22524602       4.56767250       4.21173534
O        0.98222829       1.52255750       9.99535196
O        3.35544829       4.56767250       5.67019804
O        1.39099171       1.52255750       4.77350196
O        3.76421171       4.56767250       0.44834804
O        1.35045711       0.28624081       6.95017791
O        3.72367711       5.80398919       8.71537209
O        3.72367711       3.33135581       8.71537209
O        1.35045711       2.75887419       6.95017791
O        1.02276289       2.75887419       1.72832791
O        3.39598289       3.33135581       3.49352209
O        3.39598289       5.80398919       3.49352209
O        1.02276289       0.28624081       1.72832791
Li       4.74644000       0.00000000       5.22185000
Li       7.11966000       0.00000000       0.00000000
Li       7.11966000       3.04511500       0.00000000
Li       4.74644000       3.04511500       5.22185000
Fe       7.00213815       4.56767250       7.49878547
Fe       4.86396185       4.56767250       2.27693547
Fe       9.37535815       1.52255750       8.16676453
Fe       7.23718185       1.52255750       2.94491453
P        6.72959756       1.52255750       6.21139058
P        9.10281756       4.56767250       9.45415943
P        5.13650244       1.52255750       0.98954058
P        7.50972244       4.56767250       4.23230942
O        8.26763398       1.52255750       6.23196466
O        5.89441398       4.56767250       9.43358534
O        8.34490602       1.52255750       1.01011466
O        5.97168602       4.56767250       4.21173534
O        5.72866829       1.52255750       9.99535196
O        8.10188829       4.56767250       5.67019804
O        6.13743171       1.52255750       4.77350196
O        8.51065171       4.56767250       0.44834804
O        6.09689711       0.28624081       6.95017791
O        8.47011711       5.80398919       8.71537209
O        8.47011711       3.33135581       8.71537209
O        6.09689711       2.75887419       6.95017791
O        5.76920289       2.75887419       1.72832791
O        8.14242289       3.33135581       3.49352209
O        8.14242289       5.80398919       3.49352209
O        5.76920289       0.28624081       1.72832791
55
Lattice="9.334882821831943 0.0077100574174519855 -0.0144970771884647 0.004951115870729785 5.955517107375719 -0.0017727442155360434 -0.01595730890833645 -0.003029195759847635 10.181769765352103" Properties=species:S:1:pos:R:3 volume=566.0440455392238 potential_energy=-517.048409455573 energy=-517.048409455573 state=1 converged=T pbc="T T T"
Li      -0.00797865      -0.00151460       5.09088488
Li       2.32681731      -0.01268505      -0.00472251
Li       2.32914852       2.98753995      -0.00985781
Fe       2.17043846       4.45696872       7.27688588
Fe       0.09171054       4.45018742       2.27968691
Fe       4.51552737       1.48218235       7.93520414
Fe       2.42603375       1.49662826       2.86483456
P        1.95262141       1.50090666       6.03476645
P        4.27891967       4.46648676       9.19722243
P        0.37403703       1.48337737       0.94403003
P        2.71224701       4.49840428       4.07255590
O        3.48146984       1.49048399       6.06435722
O        1.13243402       4.46362608       9.21191876
O        3.52618174       1.48709048       0.99037158
O        1.21132990       4.56969303       4.00145139
O        0.93788438       1.48652412       9.69940524
O        3.26676724       4.47377044       5.50824876
O        1.42454274       1.45960912       4.60877476
O        3.72139621       4.47377090       0.44286348
O        1.32588402       0.26356783       6.76025720
O        3.63668987       5.68006134       8.47194838
O        3.65535148       3.23970676       8.48299280
O        1.37490398       2.68247548       6.84337135
O        1.00465706       2.70482306       1.66741455
O        3.33229246       3.26575801       3.35475943
O        3.40101511       5.70788557       3.36620388
O        0.99727103       0.25692601       1.66033811
Li       4.65946276       0.00234043       5.08363634
Li       7.00806551       0.02039511      -0.00977456
Li       7.01068541       2.97568721      -0.00641201
Li       4.66193831       2.98009898       5.08274997
Fe       6.89784288       4.46356971       7.30066538
Fe       4.80834926       4.47801562       2.23029580
Fe       9.23216608       1.51001055       7.88581303
Fe       7.15343817       1.50322925       2.88861406
P        6.61162962       1.46179369       6.09294404
P        8.94983960       4.47682060       9.22146991
P        5.04495696       1.49371121       0.96827751
P        7.37125522       4.45929131       4.13073350
O        8.11254673       1.39050494       6.16404855
O        5.79769489       4.47310749       9.17512836
O        8.19144261       1.49657189       0.95358119
O        5.84240679       4.46971398       4.10114272
O        5.60248042       1.48642707       9.72263646
O        7.89933389       4.50058885       5.55672519
O        6.05710939       1.48642752       4.65725118
O        8.38599225       4.47367384       0.46609471
O        5.92286152       0.25231240       6.79929607
O        8.32660560       5.70327196       8.50516183
O        8.31921957       3.25537491       8.49808540
O        5.99158416       2.69443996       6.81074052
O        5.66852515       2.72049121       1.68250714
O        7.94897265       3.27772249       3.32212859
O        7.99799261       5.69663013       3.40524274
O        5.68718676       0.28013663       1.69355156
54
Lattice="9.338113812089128 0.00564856746507216 -0.009767522975164606 0.0036549487330096767 5.934114107546858 -0.0016691068359278383 -0.01089189738694866 -0.0028587665667420877 10.126229858667134" Properties=species:S:1:pos:R:3 volume=561.1282741835599 potential_energy=-511.93568143876576 energy=-511.93568143876576 state=2 converged=T pbc="T T T"
Li       0.00696742      -0.02884949       5.06649035
Li       2.32395348      -0.02201301      -0.00019947
Fe       2.20863098       4.42739009       7.30264189
Fe       0.12171020       4.42541585       2.24095977
Fe       4.49002370       1.48710980       7.92203741
Fe       2.40548547       1.50762297       2.79282986
P        1.95580323       1.49455279       5.98120338
P        4.28859319       4.43976248       9.17117383
P        0.37066497       1.49209043       0.92034772
P        2.71072133       4.48181868       4.07885502
O        3.48362557       1.48643063       6.03039581
O        1.11661290       4.54480255       9.05032075
O        3.54899988       1.38572929       1.09091311
O        1.21058066       4.54526933       3.99000991
O        0.87324640       1.44896786       9.61425096
O        3.25499524       4.45766764       5.51932567
O        1.44244336       1.45166656       4.54912230
O        3.79125193       4.48509016       0.47830851
O        1.32386202       0.25745266       6.70128178
O        3.63806474       5.66789032       8.45156299
O        3.70216788       3.25855225       8.37210254
O        1.36559190       2.67767389       6.77918844
O        0.96221442       2.67502906       1.71809353
O        3.34349553       3.24933934       3.36930957
O        3.40350418       5.68986402       3.37893358
O        1.00279351       0.25485557       1.63906368
Li       4.65641266       0.01612573       5.05783510
Li       7.00991036       0.01759747      -0.00730280
Li       7.01225402       2.96466850      -0.00230580
Li       4.65846235       2.96021017       5.06217694
Fe       6.88089106       4.45504924       7.27863119
Fe       4.78623827       4.45317125       2.22255636
Fe       9.25799938       1.51262490       7.84514796
Fe       7.17391592       1.48834722       2.85724715
P        6.61500179       1.45972642       6.06494087
P        8.95446793       4.48642805       9.13057360
P        5.04940816       1.45798955       1.00696764
P        7.37986030       4.44032298       4.10353855
O        8.11518182       1.38836568       6.14608618
O        5.81715481       4.45567251       9.12349805
O        8.18132596       1.48982653       0.96120040
O        5.85097933       4.45554639       4.05767101
O        5.57901311       1.47655143       9.69199340
O        7.88728959       4.48550977       5.53691854
O        6.07378254       1.47702471       4.62401667
O        8.42145635       4.46072044       0.44500719
O        5.90938602       0.25988944       6.77146337
O        8.26156804       5.69547270       8.43344895
O        8.32147310       3.25539812       8.41823316
O        5.98912607       2.69420477       6.77061034
O        5.67567820       2.69091470       1.71505876
O        7.96569371       3.25897798       3.30445688
O        8.02977527       5.66837288       3.38246054
O        5.75551919       0.25733496       1.71052078
53
Lattice="9.348542693300582 0.006885454286798256 -0.012592308793830163 0.004453122639207518 5.919713790045001 -0.002156710489713706 -0.013999400931160377 -0.003693638781225537 10.092512614842605" Properties=species:S:1:pos:R:3 volume=558.5252565130721 potential_energy=-506.7144919632177 energy=-506.7144919632177 state=3 converged=T pbc="T T T"
Li       0.00159174      -0.02363322       5.04922936
Li       2.33713681       0.00029342      -0.00063365
Fe       2.23591655       4.40449793       7.27455318
Fe       0.12901266       4.41908315       2.24339046
Fe       4.53802912       1.49974904       7.84169187
Fe       2.43099866       1.51665180       2.80954346
P        1.96207268       1.45958369       6.01322720
P        4.29885382       4.43297515       9.15183017
P        0.36571462       1.48587238       0.93343909
P        2.70285838       4.46264359       4.07190645
O        3.46957013       1.38205052       6.13197909
O        1.12008265       4.53167119       9.00554721
O        3.54597865       1.38901782       1.07610733
O        1.19693861       4.53967468       3.95584038
O        0.84962184       1.44254749       9.58779298
O        3.17827306       4.48279752       5.51842578
O        1.49034903       1.43971952       4.56696828
O        3.81214345       4.47622176       0.49631531
O        1.25930999       0.24305058       6.71653518
O        3.64722464       5.66297240       8.43828277
O        3.70165863       3.25074686       8.35707253
O        1.36285271       2.65208780       6.80023191
O        0.96408784       2.66834387       1.72719169
O        3.30206698       3.27016414       3.28437642
O        3.40587269       5.67912666       3.36815953
O        1.01964536       0.25644472       1.64614857
Li       4.65824181       0.02418704       5.03743172
Li       7.01146495       0.00414758      -0.01049944
Li       7.01420360       2.96584640      -0.00941651
Fe       6.86702327       4.43034666       7.22249778
Fe       4.75784438       4.42635006       2.25741846
Fe       9.25428017       1.50070094       7.81306219
Fe       7.14599857       1.49400314       2.84860323
P        6.63253410       1.46171433       6.03098132
P        8.96920929       4.47220517       9.08963642
P        5.04548486       1.45504696       0.98017163
P        7.38109011       4.46184468       4.03960272
O        8.13945444       1.38123241       6.13630759
O        5.82685508       4.44279534       9.09218451
O        8.18683077       1.48251096       0.98258822
O        5.87260394       4.54325294       3.93229257
O        5.56784947       1.47680901       9.62801028
O        7.85561420       4.48525174       5.48492652
O        6.15525963       1.43915505       4.58519215
O        8.44846549       4.45003100       0.44225843
O        5.91926020       0.25056101       6.73657290
O        8.25946339       5.67329568       8.39417278
O        8.33273270       3.23952847       8.38353536
O        6.04023372       2.65150587       6.82204777
O        5.68137687       2.68797487       1.68601886
O        7.97327224       3.27134058       3.25010158
O        8.09396559       5.67240957       3.33310293
O        5.75393424       0.25340365       1.67600828
52
Lattice="9.370949846556204 0.004988510439193272 -0.007957182814742428 0.003273788175622217 5.899534543485526 -0.00502376764061537 -0.009086876155383346 -0.008586634352692045 10.050395710713602" Properties=species:S:1:pos:R:3 volume=555.627517440216 potential_energy=-501.4940920763323 energy=-501.4940920763323 state=4 converged=T pbc="T T T"
Li      -0.00492041      -0.00341674       5.02597093
Li       2.34303431       0.00134839      -0.00205959
Fe       2.24017994       4.39320114       7.25256862
Fe       0.09808635       4.39420418       2.23359047
Fe       4.58199388       1.49922932       7.80777040
Fe       2.43988873       1.50023785       2.78872985
P        1.97856074       1.45241621       5.99507954
P        4.32415986       4.44030696       9.06569494
P        0.35595788       1.45312445       0.97556422
P        2.70154987       4.44107820       4.04613335
O        3.48459360       1.37254918       6.11500521
O        1.14353945       4.51841331       8.94835912
O        3.53665593       1.37494315       1.09316232
O        1.19557614       4.52102200       3.92616447
O        0.81333662       1.42969856       9.57726056
O        3.16993178       4.45683168       5.49516669
O        1.51009633       1.43658806       4.54610786
O        3.86694951       4.46379012       0.46401988
O        1.25916971       0.24247557       6.69338171
O        3.60416174       5.64941075       8.36763530
O        3.71960980       3.25004509       8.27830463
O        1.37519164       2.64229958       6.78329446
O        0.96046440       2.64339117       1.76298233
O        3.30488585       3.25117856       3.25791552
O        3.42105217       5.65100969       3.34794175
O        1.07595893       0.24401341       1.67359481
Li       4.68191710      -0.00269750       5.02034794
Li       7.02846878       0.00375008      -0.00596535
Fe       6.92785552       4.39633176       7.24870468
Fe       4.78483447       4.39694352       2.22726104
Fe       9.26639821       1.50142015       7.80616540
Fe       7.12339834       1.50207592       2.78478912
P        6.66417899       1.45597543       5.99034872
P        9.00929002       4.44317257       9.06438112
P        5.04188583       1.45514529       0.96915633
P        7.38702787       4.44244226       4.04324700
O        8.17072503       1.37556238       6.11070210
O        5.83078390       4.51942104       8.94192530
O        8.22031141       1.37895911       1.09131068
O        5.88040780       4.52281651       3.92296812
O        5.50085154       1.43066445       9.57028107
O        7.85621224       4.45822060       5.49172010
O        6.19509328       1.44023584       4.54180987
O        8.55017196       4.46762909       0.46322917
O        5.94562365       0.24593357       6.68887911
O        8.28829078       5.65242005       8.36610714
O        8.40392107       3.25277391       8.27776353
O        6.06147334       2.64599401       6.77833168
O        5.64725124       2.64554020       1.75577881
O        7.98969358       3.25244342       3.25521939
O        8.10549274       5.65248253       3.34462603
O        5.76290495       0.24591319       1.66742475
51
Lattice="9.41954310883376 0.007847833103744543 0.011111660936632203 0.005089663791215553 5.877174629928505 -0.008469653795328986 0.011283475289223945 -0.014476440779669239 10.00495723362248" Properties=species:S:1:pos:R:3 volume=553.8751387883382 potential_energy=-495.8545571216084 energy=-495.8545571216084 state=5 converged=T pbc="T T T"
Li       0.02171206      -0.01967963       4.99321442
Fe       2.28081458       4.39512942       7.27549705
Fe       0.14253143       4.38601960       2.18472700
Fe       4.58413420       1.48058307       7.81729802
Fe       2.44585074       1.47147223       2.72652887
P        2.00508893       1.45453228       5.95853627
P        4.35420503       4.43284054       9.05682460
P        0.37246084       1.43376244       0.94520050
P        2.72157614       4.41206894       4.04348945
O        3.50925792       1.37301737       6.10434409
O        1.11729898       4.40994959       8.82413861
O        3.60936657       1.45665274       1.17788738
O        1.21740715       4.49358407       3.89768133
O        0.75947543       1.45151765       9.49062829
O        3.17286395       4.44203145       5.49678587
O        1.55380095       1.42456983       4.50523987
O        3.96719060       4.41508529       0.51139686
O        1.27291944       0.24763903       6.65514050
O        3.66492895       5.60976092       8.29871798
O        3.73658875       3.22768366       8.28039650
O        1.38674243       2.64497088       6.73024824
O        0.99007709       2.63891920       1.72162867
O        3.33992289       3.22163041       3.27177772
O        3.45374563       5.61896227       3.34688521
O        1.06173660       0.25684185       1.70330726
Li       4.69986274       0.00910634       5.01728177
Li       7.06491787       0.00587537       0.00832552
Fe       6.95224657       4.36892539       7.23555697
Fe       4.81035859       4.38317143       2.23664068
Fe       9.33584965       1.49127894       7.77649646
Fe       7.19396212       1.50552494       2.77757935
P        6.70225980       1.44932871       5.97968577
P        9.04961466       4.39452451       9.00965755
P        5.09659384       1.47992615       1.00347934
P        7.44394877       4.42512140       4.03345045
O        8.20829253       1.37232773       6.11160363
O        5.86750823       4.50028020       8.89184100
O        8.27870071       1.37417066       1.12129550
O        5.93791611       4.50212229       3.90153296
O        5.54407162       1.42862708       9.54779058
O        7.89308362       4.43453900       5.48816365
O        6.25312519       1.43991131       4.52497261
O        8.60213646       4.44582378       0.46534621
O        5.97688495       0.23921378       6.66723627
O        8.32747249       5.61032682       8.31777863
O        8.38491235       3.21471468       8.24195076
O        6.07697621       2.63210968       6.76312792
O        5.76129630       2.65973607       1.77118586
O        8.06923248       3.24234043       3.25000845
O        8.16932357       5.63523627       3.34589979
O        5.81873643       0.26412390       1.69535806
50
Lattice="9.475931349564624 0.004877349609313126 0.006608538423984792 0.00328574761710544 5.862574349832351 -0.009369878405764353 0.0066120426625592135 -0.01601474341678426 9.975281450674363" Properties=species:S:1:pos:R:3 volume=554.158483829832 potential_energy=-490.0894721740716 energy=-490.0894721740716 state=6 converged=T pbc="T T T"
Li       0.02202440      -0.02202594       4.97784454
Fe       2.28440161       4.38437625       7.26707631
Fe       0.17579308       4.36784221       2.17962354
Fe       4.61117930       1.44803216       7.74082674
Fe       2.50383716       1.45568970       2.75228217
P        1.98458370       1.47270716       5.97179357
P        4.37579226       4.40788596       9.04198016
P        0.39187901       1.43263086       0.94108193
P        2.74371709       4.41396752       4.05283541
O        3.46875606       1.44939896       6.17524618
O        1.09029964       4.39880248       8.78941688
O        3.64647978       1.45810049       1.18829669
O        1.23302738       4.48180517       3.85992132
O        0.74821419       1.45448941       9.45020783
O        3.09383890       4.39400579       5.51853691
O        1.57123386       1.42392878       4.50514950
O        4.02054525       4.40304015       0.53269786
O        1.24945388       0.25804700       6.65650264
O        3.67349158       5.58557424       8.29342401
O        3.74302394       3.20470679       8.28096860
O        1.30481275       2.65056466       6.72264332
O        1.02775601       2.63235618       1.71075762
O        3.37608716       3.21053889       3.29257977
O        3.44659822       5.59156883       3.30431523
O        1.08618027       0.25487340       1.68839409
Li       7.08688512      -0.01241601      -0.00630136
Fe       6.94478822       4.36249750       7.17241419
Fe       4.83548718       4.39415648       2.27980917
Fe       9.35068958       1.49419817       7.74392580
Fe       7.24178226       1.50176281       2.75198929
P        6.72579618       1.42904692       5.93415920
P        9.07917902       4.38168048       8.97792272
P        5.13049526       1.48177064       0.98480083
P        7.51691976       4.38809367       3.98692961
O        8.23867324       1.36413540       6.11132210
O        5.88658928       4.47559903       8.84962732
O        8.35465600       1.37306301       1.12282014
O        6.03005988       4.40979682       3.80313519
O        5.54855937       1.41759411       9.49305334
O        7.93054338       4.41812917       5.45443472
O        6.37612728       1.46482655       4.46794921
O        8.65920570       4.42569748       0.47008167
O        6.02996974       0.25209691       6.68175217
O        8.35348443       5.59871354       8.29937064
O        8.39928064       3.20938917       8.21211111
O        6.08981849       2.62953224       6.70184507
O        5.81125278       2.65918114       1.73605680
O        8.19657475       3.21473698       3.22314151
O        8.24386474       5.60415860       3.30764142
O        5.86547576       0.26688772       1.66899268
49
Lattice="9.570548865963199 0.009032996319646044 0.030144265692749327 0.005874274668491706 5.844481872306432 -0.007302868190841351 0.03147225274591354 -0.012516399537811917 9.939265079970536" Properties=species:S:1:pos:R:3 volume=555.9448407111801 potential_energy=-484.1065068036927 energy=-484.1065068036927 state=7 converged=T pbc="T T T"
Li       0.01672455      -0.00608865       4.96964326
Fe       2.27979778       4.36212371       7.25443073
Fe       0.20556437       4.35457075       2.18247423
Fe       4.65767091       1.44108741       7.71419421
Fe       2.58221712       1.46141269       2.74568420
P        1.99582564       1.46950381       5.96018241
P        4.40277342       4.37609998       8.99746419
P        0.44276206       1.44989830       0.96167168
P        2.80317583       4.40016131       4.04370529
O        3.47889852       1.44865231       6.17836977
O        1.08799968       4.38755261       8.74202921
O        3.71966051       1.45907116       1.21432328
O        1.29246864       4.46551538       3.83590794
O        0.77950120       1.45310460       9.42168419
O        3.12022834       4.37947937       5.51725863
O        1.61308177       1.42639136       4.48477781
O        4.06802518       4.38855790       0.53791851
O        1.25289698       0.25506728       6.62886545
O        3.69886890       5.56337706       8.26229246
O        3.70935514       3.18496952       8.26163508
O        1.29860173       2.64159125       6.70179540
O        1.13180786       2.64140566       1.70755782
O        3.45485849       3.20074862       3.29739873
O        3.51568480       5.57660549       3.30722205
O        1.13793302       0.26462724       1.69808800
Fe       7.02760580       4.37970236       7.21631506
Fe       4.95232265       4.40003622       2.24836783
Fe       9.40425993       1.48653624       7.77933887
Fe       7.33026272       1.47899269       2.70790806
P        6.80659072       1.44095729       5.91872332
P        9.16719239       4.39119793       8.99992739
P        5.20734154       1.46503024       0.96471931
P        7.61469105       4.37166657       4.00234396
O        8.31723913       1.37563187       6.12594868
O        5.89041435       4.38207604       8.74798654
O        8.52161972       1.45353591       1.22006172
O        6.13081215       4.39245632       3.78406839
O        5.54220455       1.45256384       9.42476501
O        7.99706606       4.41472666       5.47720290
O        6.48931716       1.46168247       4.44465366
O        8.83010527       4.38797635       0.54040551
O        6.09417550       0.26453837       6.65493644
O        8.47190834       5.57643944       8.26377113
O        8.47802609       3.19971363       8.25430136
O        6.15497518       2.64032436       6.66477907
O        5.90071815       2.65621840       1.70091447
O        8.31137457       3.19957439       3.26029541
O        8.35700378       5.58612153       3.33328308
O        5.91118554       0.27770424       1.70027903
