24
Lattice="4.889018692695598 -6.664153865513973e-17 0.0013433472305632162 -1.120334546379126e-16 8.457802303347256 2.5771923206961957e-14 -1.6527694684203058 1.0037441299258523e-14 4.646046077982546" Properties=species:S:1:pos:R:3 volume=192.13442636030254 potential_energy=-204.00678763835617 energy=-204.00678763835617 state=0 removed_atom="_JSON [-1]" pbc="T T T"
Li       2.44450935       0.00000000       0.00067167
Li      -0.82638473       0.00000000       2.32302304
Li       1.61812461       7.09457472       2.32369471
Li       1.61812461       1.36322758       2.32369471
Li       0.00000000       4.22890115       0.00000000
Li       1.61812461       4.22890115       2.32369471
Li      -0.82638473       2.86567357       2.32302304
Li      -0.82638473       5.59212873       2.32302304
Mn       2.44450935       2.81377505       0.00067167
Mn       2.44450935       5.64402725       0.00067167
Mn       0.00000000       7.04267620       0.00000000
Mn       0.00000000       1.41512610       0.00000000
O        2.53494686       0.00000000       3.58156853
O        0.70130237       0.00000000       1.06582089
O       -0.07720801       1.50543975       3.59712873
O        3.31345724       1.50543975       1.05026069
O        3.31345724       6.95236255       1.05026069
O       -0.07720801       6.95236255       3.59712873
O        0.09043751       4.22890115       3.58089686
O        3.14581171       4.22890115       1.06649257
O        2.36730133       5.73434091       3.59780040
O        0.86894789       5.73434091       1.04958902
O        0.86894789       2.72346140       1.04958902
O        2.36730133       2.72346140       3.59780040
