23
Lattice="4.892746612444485 -3.091457906544126e-15 -0.002796299869308448 -5.391672656228908e-15 8.424823857479307 -1.0182414906734663e-14 -1.6579852959037489 7.26883738991913e-15 4.67669499565839" Properties=species:S:1:pos:R:3 volume=192.73677946468572 potential_energy=-197.8667272821913 energy=-197.8667272821913 state=1 pbc="T T T"
Li       2.44637331      -0.00212866      -0.00139815
Li      -0.82899265      -0.12395418       2.33834750
Li       1.61738066       7.01425530       2.33694935
Li       1.61738066       1.34987470       2.33694935
Li      -0.00000000       4.24541966      -0.00000000
Li       1.61738066       4.32584481       2.33694935
Li      -0.82899265       2.97630608       2.33834750
Mn       2.44637331       2.80667065      -0.00139815
Mn       2.44637331       5.63361067      -0.00139815
Mn      -0.00000000       6.98276483      -0.00000000
Mn      -0.00000000       1.39927978      -0.00000000
O        2.54141749      -0.00539144       3.60466246
O        0.69334383      -0.00539144       1.06923624
O       -0.09423114       1.49396967       3.62327150
O        3.32899245       1.49396967       1.05062719
O        3.30995337       6.94794046       1.00915784
O       -0.07519205       6.94794046       3.66474085
O        0.11346590       4.18540777       3.63678444
O        3.12129542       4.18540777       1.03711425
O        2.34323840       5.71329819       3.64383471
O        0.89152292       5.71329819       1.03006399
O        0.87058154       2.69879567       1.04561633
O        2.36417977       2.69879567       3.62828236
