22
Lattice="4.860304016874075 9.89016735590297e-16 0.07295585780802102 1.4442214020638737e-15 8.455895396687325 -3.7600838234598795e-15 -1.5751082453804257 2.4237202233063368e-14 4.7145149888656706" Properties=species:S:1:pos:R:3 volume=194.72988080840005 potential_energy=-191.2459078117306 energy=-191.2459078117306 state=2 pbc="T T T"
Li       2.43015201      -0.00333279       0.03647793
Li      -0.78755412      -0.14909362       2.35725749
Li       1.64259789       6.88392359       2.39373542
Li       1.64259789       1.42353607       2.39373542
Li       0.00000000       4.26972626      -0.00000000
Li      -0.78755412       3.19806910       2.35725749
Mn       2.43015201       2.84498423       0.03647793
Mn       2.43015201       5.62326743       0.03647793
Mn       0.00000000       7.01574958      -0.00000000
Mn       0.00000000       1.40601403      -0.00000000
O        2.59943885       0.00156998       3.71224186
O        0.68575692       0.00156998       1.07522899
O       -0.00832092       1.51255140       3.68069244
O        3.29351669       1.51255140       1.10677841
O        3.27397693       6.97275859       1.07352191
O        0.01121884       6.97275859       3.71394893
O        0.16486918       4.21145546       3.74658163
O        3.12032659       4.21145546       1.04088922
O        2.42777862       5.76506716       3.77020208
O        0.85741715       5.76506716       1.01726876
O        0.84750532       2.68025408       1.04126701
O        2.43769045       2.68025408       3.74620384
