21
Lattice="4.817118796700475 -7.324300155159541e-15 0.12411735279960309 -1.1569685474447003e-14 8.529426209411879 -2.655630722715739e-14 -1.5114110154813363 -2.126736455247107e-14 4.679364758397624" Properties=species:S:1:pos:R:3 volume=193.86232824609243 potential_energy=-184.35522164401715 energy=-184.35522164401715 state=3 pbc="T T T"
Li       2.40855940      -0.01378976       0.06205868
Li       1.65285389       7.02340693       2.40174106
Li       1.65285389       1.34490265       2.40174106
Li      -0.00000000       4.31135285      -0.00000000
Li      -0.75570551       3.15373516       2.33968238
Mn       2.40855940       2.86808879       0.06205868
Mn       2.40855940       5.66243373       0.06205868
Mn      -0.00000000       7.10176121      -0.00000000
Mn      -0.00000000       1.37903264      -0.00000000
O        2.60494743      -0.00101205       3.77049811
O        0.70076035      -0.00101205       1.03298400
O        0.05728433       1.55837118       3.68240556
O        3.24842345       1.55837118       1.12107655
O        3.22330439       6.98253597       1.08373619
O        0.08240339       6.98253597       3.71974592
O        0.21326474       4.23447943       3.72773499
O        3.09244304       4.23447943       1.07574712
O        2.46619385       5.82503441       3.76547863
O        0.83951393       5.82503441       1.03800348
O        0.83299648       2.68362820       1.05791594
O        2.47271130       2.68362820       3.74556617
