20
Lattice="4.77443247990537 -6.989916364674279e-09 0.3083504596098125 -1.2459220123167382e-08 8.485131324220609 2.0775752413026994e-08 -1.3210021753371723 1.332692538596262e-08 4.7027275970337294" Properties=species:S:1:pos:R:3 volume=193.9716888874277 potential_energy=-177.16077313626707 energy=-177.16077313626707 state=4 pbc="T T T"
Li       2.38721592      -0.04747145       0.15417518
Li       1.72671493       6.93252704       2.50553912
Li       1.72671495       1.40143072       2.50553910
Li      -0.66049865       3.83295598       2.35136177
Mn       2.38721406       2.83775568       0.15417291
Mn       2.38721434       5.56349339       0.15417325
Mn       0.00000166       7.00812596       0.00000000
Mn       0.00000207       1.37166327      -0.00000019
O        2.80793768      -0.04125059       3.95950973
O        0.64549209      -0.04125060       1.05156825
O        0.27868487       1.49895064       3.79659296
O        3.17474457       1.49894983       1.21448720
O        3.16909327       6.90789301       1.20749447
O        0.28433631       6.90789233       3.80358542
O        0.48572795       4.19834979       3.79710098
O        2.96770378       4.19834979       1.21398001
O        2.63303150       5.79143594       3.90865000
O        0.82039847       5.79143607       1.10242786
O        0.81497437       2.60971819       1.11409348
O        2.63845553       2.60971834       3.89698455
