19
Lattice="4.723647280044476 -6.839453660856442e-15 0.25424721665579697 -1.7648260197165834e-14 8.496901966032219 1.8120223474721187e-13 -1.3549016289506723 6.343766655556098e-14 4.588829963435304" Properties=species:S:1:pos:R:3 volume=187.10597997980895 potential_energy=-169.90072854239497 energy=-169.90072854239497 state=5 pbc="T T T"
Li       1.68437283       7.10633407       2.42153859
Li       1.68437283       1.25878352       2.42153859
Li      -0.67745081       3.50059841       2.29441498
Mn       2.36182364       2.85027759       0.12712361
Mn       2.36182364       5.59479118       0.12712361
Mn      -0.00000000       7.06752878       0.00000000
Mn      -0.00000000       1.33590510      -0.00000000
O        2.72248589      -0.02777367       3.79607359
O        0.64625976      -0.02777367       1.04700359
O        0.16797283       1.58727871       3.62638971
O        3.20077282       1.58727871       1.21668747
O        3.17627157       6.89402125       1.18669116
O        0.19247408       6.89402125       3.65638602
O        0.41021151       4.22612238       3.67679122
O        2.95853414       4.22612238       1.16628596
O        2.54005505       5.84184210       3.74935040
O        0.82869060       5.84184210       1.09372678
O        0.83048930       2.59962880       1.10826328
O        2.53825635       2.59962880       3.73481390
