18
Lattice="4.743807288053408 3.764207398083803e-15 0.8613016210083717 1.498431175077434e-14 8.351503963087046 -8.896887186923534e-14 -0.7590082949097647 2.1347309590905213e-14 4.170406371557242" Properties=species:S:1:pos:R:3 volume=170.68251944319914 potential_energy=-163.01913433560765 energy=-163.01913433560765 state=6 pbc="T T T"
Li       1.99239950      -0.00673605       2.51585400
Li      -0.37950415       4.16901593       2.08520319
Mn       2.37190364       2.77717879       0.43065081
Mn       2.37190364       5.56085306       0.43065081
Mn      -0.00000000       6.95293077      -0.00000000
Mn      -0.00000000       1.38510108      -0.00000000
O        3.49676396      -0.00673605       3.93208765
O        0.48803504      -0.00673605       1.09962034
O        0.93753538       1.49534479       3.46709925
O        3.04726361       1.49534479       1.56460874
O        3.04726361       6.84268706       1.56460874
O        0.93753538       6.84268706       3.46709925
O        1.12486031       4.16901593       3.50143684
O        2.85993868       4.16901593       1.53027115
O        3.30943903       5.67109677       3.89775006
O        0.67535997       5.67109677       1.13395793
O        0.67535997       2.66693508       1.13395793
O        3.30943903       2.66693508       3.89775006
