17
Lattice="4.7582033109379696 5.086812609945109e-14 0.8897860944552001 1.060738779949938e-13 8.375335912105278 -4.1579171307722875e-13 -0.7253790125382256 -5.882915473527148e-14 4.108453723043722" Properties=species:S:1:pos:R:3 volume=169.13396448755944 potential_energy=-154.7324014504957 energy=-154.7324014504957 state=7 pbc="T T T"
Li       2.01641215       0.13832515       2.49911991
Mn       2.37910166       2.92705720       0.44489305
Mn       2.37910166       5.72492902       0.44489305
Mn      -0.00000000       7.11905875      -0.00000000
Mn      -0.00000000       1.53292747       0.00000000
O        3.53759777       0.13832515       3.90656683
O        0.49522653       0.13832515       1.09167299
O        0.97885249       1.65884254       3.41542906
O        3.05397180       1.65884254       1.58281076
O        3.05397180       6.99314368       1.58281076
O        0.97885249       6.99314368       3.41542906
O        1.23335115       4.32599311       3.43272729
O        2.79947315       4.32599311       1.56551253
O        3.34466079       5.83916928       3.87677875
O        0.68816351       5.83916928       1.12146107
O        0.68816351       2.81281694       1.12146107
O        3.34466079       2.81281694       3.87677875
