16
Lattice="4.846970338726766 4.1387199574523324e-16 -0.03516897583535371 1.0533259561268496e-16 8.433284323725056 -1.99636345281959e-16 -1.6860437596330005 -1.2454336701939927e-15 4.1642777528622705" Properties=species:S:1:pos:R:3 volume=169.7184497724245 potential_energy=-146.51102001731385 energy=-146.51102001731385 state=8 removed_atom="_JSON [-1]" pbc="T T T"
Mn       2.42348517       2.81740739      -0.01758449
Mn       2.42348517       5.61587693      -0.01758449
Mn       0.00000000       7.03404955      -0.00000000
Mn       0.00000000       1.39923477      -0.00000000
O        2.49633604       0.00000000       3.16344874
O        0.66459054       0.00000000       0.96566004
O       -0.14222790       1.52390736       3.18749558
O        3.30315448       1.52390736       0.94161320
O        3.30315448       6.90937696       0.94161320
O       -0.14222790       6.90937696       3.18749558
O        0.07285087       4.21664216       3.18103323
O        3.08807571       4.21664216       0.94807555
O        2.28125727       5.74054952       3.16991109
O        0.87966931       5.74054952       0.95919768
O        0.87966931       2.69273480       0.95919768
O        2.28125727       2.69273480       3.16991109
