24
Lattice="5.61160300000379 -7.149693739541657e-12 -5.434516898952998e-12 -1.402900750004045 2.429895376976325 2.7134006937022076e-12 -1.3491912304044668e-11 7.7406860383322e-12 13.991576611423095" Properties=species:S:1:pos:R:3 volume=190.78365659351655 potential_energy=-207.1712895389371 energy=-207.1712895389371 state=0 removed_atom="_JSON [-1]" pbc="T T T"
Li      -0.00000000      -0.00000000       0.00000000
Li       1.40290075       0.80996513       4.66385941
Li       0.00000000       1.61993025       9.32771721
Co       0.00000001       1.61993025       2.33191849
Co      -0.00000000       0.00000000       6.99578831
Co       1.40290074       0.80996513      11.65965812
O       -0.00000000       0.00000000       3.35233840
O        1.40290075       0.80996513       1.31153105
O        1.40290075       0.80996513       8.01619229
O       -0.00000000       1.61993025       5.97538432
O        0.00000000       1.61993025      12.68004556
O        0.00000000      -0.00000000      10.63923821
Li       2.80580150      -0.00000000      -0.00000000
Li       4.20870225       0.80996513       4.66385941
Li       2.80580150       1.61993025       9.32771721
Co       2.80580151       1.61993025       2.33191849
Co       2.80580150       0.00000000       6.99578831
Co       4.20870224       0.80996513      11.65965812
O        2.80580150       0.00000000       3.35233840
O        4.20870225       0.80996513       1.31153105
O        4.20870225       0.80996513       8.01619229
O        2.80580150       1.61993025       5.97538432
O        2.80580150       1.61993025      12.68004556
O        2.80580150      -0.00000000      10.63923821
