23
Lattice="5.5926860850063695 -0.005224878871145195 0.0004202531944828047 -1.4004339601685978 2.425622771657585 5.3971828141063056e-11 0.001044450677331516 0.0006030141866444882 14.053115241622702" Properties=species:S:1:pos:R:3 volume=190.5381725919679 potential_energy=-201.1471306012593 energy=-201.1471306012593 state=1 pbc="T T T"
Li      -0.00201971      -0.00116608      -0.01015388
Li       1.39978523       0.80816638       4.69466570
Li      -0.00081199       1.61661304       9.36881353
Co      -0.00133422       1.61631154       2.34225591
Co      -0.00302178      -0.00174463       7.00691567
Co       1.40183176       0.80934794      11.73071140
O        0.00034111       0.00019694       3.36325601
O        1.39742441       0.80680336       1.32125582
O        1.36731539       0.78941991       8.00404233
O        0.00890871       1.62222529       5.97995006
O       -0.01053269       1.61100080      12.75767701
O        0.03149459       0.01818341      10.73358474
Li       2.79919279      -0.00096714      -0.00808034
Li       4.19125882       0.80274256       4.69301242
Co       2.79500883       1.61369910       2.34246604
Co       2.79883513      -0.00117363       7.05324159
Co       4.19266093       0.80355207      11.68480573
O        2.79788498      -0.00172220       3.36369360
O        4.19256663       0.80349762       1.32123849
O        4.22133156       0.82010507       7.95763856
O        2.78200744       1.60619274       5.99469716
O        2.80905467       1.62180847      12.74335017
O        2.77016450      -0.01772663      10.78040876
