22
Lattice="5.568118432341083 -0.012001431227409674 0.01916769351396467 -1.3972263802481433 2.420067080264659 -4.6316103995014105e-12 0.04786830641566231 0.02763677958207328 14.12826723635899" Properties=species:S:1:pos:R:3 volume=190.1416373487386 potential_energy=-195.02443022192045 energy=-195.02443022192045 state=2 pbc="T T T"
Li       1.40616327       0.81184874       4.71534731
Li      -0.00818310       1.60865354       9.41732535
Co       0.01829214       1.62393902       2.33401452
Co       0.00458458       0.00264691       7.04174517
Co       1.43008898       0.82566226      11.77948088
O        0.03359792       0.01939777       3.39027633
O        1.44636063       0.83505670       1.38171505
O        1.36596499       0.78864026       8.04897937
O        0.01604460       1.62264141       6.01666432
O        0.04972772       1.64208837      12.73258743
O        0.05789397       0.03342510      10.78126512
Li       2.82050342       0.01504036       0.01336956
Li       4.19022237       0.80584796       4.72493122
Co       2.80774177       1.62105046       2.38894997
Co       2.79403352      -0.00024205       7.09668119
Co       4.21414864       0.81966180      11.78906360
O        2.79628152       0.00105583       3.41403009
O        4.17350129       0.79619404       1.43693498
O        4.20694317       0.81550172       8.01292706
O        2.77872795       1.60429933       6.04041826
O        2.80228510       1.61790006      12.77769543
O        2.81045005       0.00923604      10.82637382
