21
Lattice="5.579836931149464 -0.005573613904563386 -0.0033798548610680787 -1.3973726784032294 2.4203204761033086 -1.4125921065130945e-12 -0.00884195565174435 -0.005104905470570285 13.592459777154769" Properties=species:S:1:pos:R:3 volume=183.46012182815545 potential_energy=-188.43616962440996 energy=-188.43616962440996 state=3 pbc="T T T"
Li       1.38686064       0.80070437       4.62166957
Co      -0.00983375       1.60786946       2.23533908
Co      -0.00307201      -0.00177362       6.99533292
Co       1.38519193       0.79974093      11.08661190
O        0.00754109       0.00435385       3.29402706
O        1.41734031       0.81830181       1.28058442
O        1.39178311       0.80354635       7.87779920
O       -0.00710417       1.60944539       5.93004463
O        0.02372665       1.62724557      12.08848130
O       -0.02508779      -0.01448444      10.22926252
Li       2.78191124      -0.00740978      -0.11324768
Li       4.18172596       0.80077362       4.62233219
Co       2.78484615       1.60783167       2.27931771
Co       2.78666543      -0.00466495       6.99285621
Co       4.17941975       0.79944213      11.14901077
O        2.77402935      -0.01196039       3.30708775
O        4.14976449       0.78232066       1.32587538
O        4.18265032       0.80130730       7.87491793
O        2.78467595       1.60773341       5.92809641
O        2.74642843       1.58565119      12.14108316
O        2.79907136       0.00249762      10.20941452
