20
Lattice="5.5469804351101715 -0.012867787863881753 0.01570094504005244 -1.392317024367553 2.4115638264480617 -1.2431685405142027e-12 0.042088231123150514 0.024299651575432502 13.689164174684118" Properties=species:S:1:pos:R:3 volume=182.8711637111706 potential_energy=-182.1820826517407 energy=-182.1820826517407 state=4 pbc="T T T"
Co       0.00361158       1.60979437       2.28384838
Co       0.04130894       0.02384973       7.08621944
Co       1.40036016       0.80849831      11.17064743
O       -0.00913065      -0.00527158       3.27813481
O        1.40867174       0.81329701       1.28956420
O        1.43927226       0.83096423       7.95840497
O        0.00660435       1.61152224       6.08298281
O        0.04274775       1.63238964      12.17388419
O        0.00239638       0.00138355      10.29846298
Li       2.72699996      -0.03327506      -0.10762999
Li       4.21955309       0.82845090       4.69103587
Co       2.77710077       1.60335988       2.29170239
Co       2.81043189       0.01489439       7.03055779
Co       4.17821714       0.80458557      11.24201134
O        2.79400646       0.00541116       3.24969904
O        4.15251096       0.78974411       1.33370301
O        4.17990529       0.80556023       7.98217891
O        2.84556046       1.64288510       6.03764424
O        2.75077118       1.58815848      12.23492434
O        2.80874448       0.01392016      10.29038923
