19
Lattice="5.547975860537274 -0.006500682935477653 -0.006538425953919241 -1.3898088434160993 2.4072195296055274 -1.2045369041805065e-12 -0.02027283399797951 -0.011704526159312901 13.127556166725137" Properties=species:S:1:pos:R:3 volume=175.20205446135228 potential_energy=-175.38329405520437 energy=-175.38329405520437 state=5 pbc="T T T"
Co       0.00662984       1.60864076       1.99916163
Co      -0.00758212      -0.00437754       6.80420752
Co       1.37398142       0.79326855      10.93165960
O       -0.02672037      -0.01542702       2.99701813
O        1.37350451       0.79299320       1.06736448
O        1.39605868       0.80601485       7.66839342
O       -0.04341693       1.57974624       5.79630184
O       -0.01163808       1.59809377      11.86513693
O       -0.01314285      -0.00758803       9.99990590
Li       4.15880431       0.79627377       4.36461180
Co       2.77714873       1.60338757       1.93155698
Co       2.76293626      -0.00963103       6.73659515
Co       4.14795965       0.79001260      10.92839322
O        2.81298903       0.01926695       2.93946039
O        4.18277802       0.81011500       1.04552016
O        4.13475572       0.78238931       7.68370430
O        2.79629683       1.61444273       5.73874166
O        2.76109103       1.59411665      11.86341689
O        2.75958943      -0.01156332       9.99818425
