18
Lattice="5.541226050813082 4.663527785776593e-10 1.3139176747570599e-08 -1.385306512501339 2.399421263711588 -4.886157491850237e-11 3.516098872152391e-08 1.9995904029284475e-08 12.57331606403322" Properties=species:S:1:pos:R:3 volume=167.17148617863893 potential_energy=-168.42508305363802 energy=-168.42508305363802 state=6 removed_atom="_JSON [-1]" pbc="T T T"
Co      -0.00000291       1.59961250       2.09555311
Co       0.00000285       0.00000165       6.28665762
Co       1.38530919       0.79980863      10.47776300
O        0.00000006       0.00000003       3.03199104
O        1.38530658       0.79980713       1.15911274
O        1.38530658       0.79980713       7.22309642
O       -0.00000003       1.59961416       5.35021965
O       -0.00000002       1.59961417      11.41420326
O        0.00000008       0.00000004       9.54132352
Co       2.77061595       1.59961586       2.09555226
Co       2.77061020      -0.00000163       6.28665846
Co       4.15591692       0.79980558      10.47776378
O        2.77061298      -0.00000003       3.03199263
O        4.15591949       0.79980706       1.15911433
O        4.15591950       0.79980707       7.22309797
O        2.77061309       1.59961421       5.35021812
O        2.77061310       1.59961422      11.41420183
O        2.77061301      -0.00000001       9.54132496
