56
Lattice="9.320925066427652 -5.219302721914942e-18 1.6386217113173e-16 2.571230582419729e-16 5.970209714710423 -1.8000076459308088e-14 8.138703180440708e-17 -2.985478810185566e-14 10.22402499881571" Properties=species:S:1:pos:R:3 volume=568.9452894812688 potential_energy=-522.04630336986 energy=-522.04630336986 state=0 removed_atom="_JSON [-1]" pbc="T T T"
Li       0.00000000      -0.00000000       5.11201250
Li       2.33023127       0.00000000      -0.00000000
Li       2.33023127       2.98510486      -0.00000000
Li       0.00000000       2.98510486       5.11201250
Fe       2.21218742       4.47765729       7.34456796
Fe       0.11804385       4.47765729       2.23255546
Fe       4.54241869       1.49255243       7.99146954
Fe       2.44827511       1.49255243       2.87945704
P        1.95330547       1.49255243       6.08421632
P        4.28353674       4.47765729       9.25182117
P        0.37692580       1.49255243       0.97220382
P        2.70715706       4.47765729       4.13980867
O        3.47207137       1.49255243       6.08867944
O        1.14184010       4.47765729       9.24735806
O        3.51862243       1.49255243       0.97666694
O        1.18839117       4.47765729       4.13534556
O        0.96857208       1.49255243       9.77669075
O        3.29880335       4.47765729       5.55934675
O        1.36165918       1.49255243       4.66467825
O        3.69189045       4.47765729       0.44733425
O        1.33408645       0.26915953       6.81279720
O        3.66431772       5.70105018       8.52324029
O        3.66431772       3.25426439       8.52324029
O        1.33408645       2.71594532       6.81279720
O        0.99614481       2.71594532       1.70078471
O        3.32637608       3.25426439       3.41122779
O        3.32637608       5.70105018       3.41122779
O        0.99614481       0.26915953       1.70078471
Li       4.66046253       0.00000000       5.11201250
Li       6.99069380       0.00000000      -0.00000000
Li       6.99069380       2.98510486      -0.00000000
Li       4.66046253       2.98510486       5.11201250
Fe       6.87264995       4.47765729       7.34456796
Fe       4.77850638       4.47765729       2.23255546
Fe       9.20288122       1.49255243       7.99146954
Fe       7.10873765       1.49255243       2.87945704
P        6.61376800       1.49255243       6.08421632
P        8.94399927       4.47765729       9.25182117
P        5.03738833       1.49255243       0.97220382
P        7.36761960       4.47765729       4.13980867
O        8.13253390       1.49255243       6.08867944
O        5.80230263       4.47765729       9.24735806
O        8.17908497       1.49255243       0.97666694
O        5.84885370       4.47765729       4.13534556
O        5.62903462       1.49255243       9.77669075
O        7.95926588       4.47765729       5.55934675
O        6.02212172       1.49255243       4.66467825
O        8.35235298       4.47765729       0.44733425
O        5.99454899       0.26915953       6.81279720
O        8.32478025       5.70105018       8.52324029
O        8.32478025       3.25426439       8.52324029
O        5.99454899       2.71594532       6.81279720
O        5.65660735       2.71594532       1.70078471
O        7.98683861       3.25426439       3.41122779
O        7.98683861       5.70105018       3.41122779
O        5.65660735       0.26915953       1.70078471
