54
Lattice="9.351016131469445 -2.032066315984232e-20 1.5633702801112774e-17 5.711692875471433e-18 5.937488136175563 -0.004832090945470783 -3.048026233974037e-16 -0.00825669625339663 10.13332753238978" Properties=species:S:1:pos:R:3 volume=562.617651240911 potential_energy=-511.9341690147704 energy=-511.9341690147704 state=2 pbc="T T T"
Li      -0.00633380       0.00951270       5.06713632
Li       2.34408783       0.01364104       0.00047256
Li       2.34497206       2.96144162       0.00292361
Li      -0.00721803       2.95731327       5.06958737
Fe       2.22261806       4.45008406       7.28956143
Fe       0.11513598       4.45421241       2.22289766
Fe       4.60366781       1.50130087       7.86265221
Fe       2.50704066       1.48460550       2.86489565
P        1.95719624       1.45328053       6.07768881
P        4.29872910       4.47678068       9.14523405
P        0.38055779       1.45740888       1.01102504
P        2.71070065       4.43917333       4.10925606
O        3.45776271       1.37978470       6.16168486
O        1.15609362       4.45054334       9.12863950
O        3.51718310       1.48487828       0.97339938
O        1.18166041       4.45467169       4.06197573
O        0.92123202       1.46744898       9.70301137
O        3.21765906       4.48351882       5.54294027
O        1.41652201       1.47157733       4.63634760
O        3.75491584       4.45969506       0.45311385
O        1.25030847       0.25414903       6.78401531
O        3.60468392       5.68453024       8.44548504
O        3.66569698       3.24399669       8.43574258
O        1.33188596       2.68843068       6.78271424
O        1.00586807       2.69255902       1.71605047
O        3.29662410       3.25689851       3.31107365
O        3.36219864       5.66634754       3.38850019
O        1.08744556       0.25827738       1.71735155
Li       4.68620363      -0.02749224       5.06826119
Li       7.00256654      -0.02336389       0.00159743
Fe       6.89317230       4.42330287       7.30779943
Fe       4.79559786       4.42743122       2.24113567
Fe       9.18172951       1.48047716       7.93155941
Fe       7.08510235       1.50542921       2.79598845
P        6.64349618       1.48800203       5.99022726
P        8.97806951       4.43504499       9.17591983
P        5.04527399       1.49213038       0.92356349
P        7.39004106       4.48090903       4.07857028
O        8.17158707       1.48074993       6.04006315
O        5.79850297       4.54153146       9.05473078
O        8.23100746       1.38391305       1.09502109
O        5.89026720       4.54565981       3.98806701
O        5.55760781       1.44171184       9.62427797
O        7.93385432       4.45556671       5.51977762
O        6.13116235       1.44584018       4.55761421
O        8.47111110       4.48764717       0.47627651
O        6.01063357       0.25158459       6.71019039
O        8.32657152       5.66221919       8.45516396
O        8.39214607       3.25277016       8.37773742
O        6.05244796       2.67145285       6.78768397
O        5.63632220       2.67558119       1.72102021
O        8.02307318       3.24812504       3.36907881
O        8.08408625       5.68865858       3.37882127
O        5.67813660       0.25571294       1.64352662
