53
Lattice="9.37505235727325 0.0076848320926851165 0.01720508348171498 0.004952617984038973 5.922300730008141 -0.0025884116999025206 0.019020749510888797 -0.004410927307700643 10.074055160451646" Properties=species:S:1:pos:R:3 volume=559.328046577408 potential_energy=-506.4178691589934 energy=-506.4178691589934 state=3 pbc="T T T"
Li      -0.00822145       0.01831899       5.04723988
Li       2.35175813       0.01482131       0.00508391
Li       2.35458647       2.95472241       0.00900622
Li      -0.00528804       2.94027165       5.04729594
Fe       2.22011559       4.43906093       7.26261212
Fe       0.11938607       4.44794396       2.22101248
Fe       4.63471005       1.50541039       7.81371972
Fe       2.54053250       1.49447914       2.84344207
P        1.96692689       1.45921813       6.04662224
P        4.31019392       4.44698311       9.06137112
P        0.40827432       1.47857132       1.04263721
P        2.73803495       4.43535038       4.08837189
O        3.46822638       1.39509524       6.13668674
O        1.17620053       4.44115336       9.05314166
O        3.52965177       1.48332649       1.00388292
O        1.20824315       4.44309661       4.02566725
O        0.93547103       1.47245819       9.66214900
O        3.22399813       4.47441957       5.53038860
O        1.43918592       1.47726756       4.59927427
O        3.78223448       4.44406483       0.44262370
O        1.26094150       0.25647573       6.74443207
O        3.61285997       5.66307703       8.37309313
O        3.61397024       3.22793584       8.36855108
O        1.32044945       2.68740908       6.74672931
O        1.09598002       2.69950585       1.73211957
O        3.34985358       3.26283492       3.29350943
O        3.39418448       5.66643601       3.38247940
O        1.11236935       0.26796721       1.73832828
Li       4.72072918      -0.03369354       5.03917084
Fe       6.95411268       4.43605430       7.33230053
Fe       4.85198346       4.42638344       2.20234434
Fe       9.18378773       1.47520118       7.94332154
Fe       7.08943666       1.48821308       2.74092280
P        6.67580240       1.49957778       5.95445494
P        9.01238941       4.44295209       9.16239400
P        5.06738518       1.47633676       0.91048195
P        7.41651435       4.46737352       4.08417749
O        8.20251525       1.48435089       6.02573227
O        5.79266121       4.44688392       8.91457542
O        8.29917338       1.48052740       1.19638416
O        5.91821550       4.53207475       3.97696715
O        5.51085151       1.47516716       9.53882775
O        7.95251392       4.45206633       5.53002519
O        6.17593912       1.44959173       4.51679459
O        8.57578562       4.45019345       0.53575968
O        6.02889295       0.26567998       6.67109806
O        8.39269088       5.63095123       8.37219791
O        8.40892301       3.24582026       8.37701217
O        6.07872967       2.68844754       6.73811374
O        5.67673748       2.67391649       1.69800626
O        8.05815671       3.23339683       3.38605298
O        8.11897564       5.67429065       3.38731462
O        5.66742120       0.27772797       1.69792179
