52
Lattice="9.402789622475884 5.024241770966795e-19 -1.6813037900638675e-17 -1.1125018520518874e-16 5.907850591337462 3.5394619411057567e-14 -6.904747322558485e-16 7.24070190355706e-14 10.017387439152246" Properties=species:S:1:pos:R:3 volume=556.468639361522 potential_energy=-500.87203702407106 energy=-500.87203702407106 state=4 pbc="T T T"
Li      -0.01956840       0.01923475       5.02001622
Li       2.37026581       0.01923475       0.01132250
Li       2.37026581       2.93469054       0.01132250
Li      -0.01956840       2.93469054       5.02001622
Fe       2.21942114       4.43088794       7.23145787
Fe       0.13127627       4.43088794       2.22276415
Fe       4.65578830       1.47696265       7.70348686
Fe       2.56899915       1.47696265       2.86228555
P        1.93980141       1.47696265       6.04405565
P        4.30660356       4.43088794       9.01723253
P        0.41089600       1.47696265       1.03536193
P        2.74336355       4.43088794       4.08386432
O        3.42438527       1.47696265       6.17869282
O        1.14630851       4.43088794       8.98789787
O        3.53281596       1.47696265       1.00573248
O        1.20438890       4.43088794       3.97920416
O        0.91126533       1.47696265       9.59384599
O        3.14017999       4.43088794       5.53795342
O        1.43943208       1.47696265       4.58515227
O        3.80680579       4.43088794       0.45996736
O        1.23710252       0.26363549       6.73374704
O        3.59718925       5.64581827       8.33346023
O        3.59718925       3.21595762       8.33346023
O        1.23710252       2.69028981       6.73374704
O        1.11359489       2.69028981       1.72505332
O        3.36846119       3.24017642       3.30463017
O        3.36846119       5.62159947       3.30463017
O        1.11359489       0.26363549       1.72505332
Fe       6.92479826       4.43088794       7.24853417
Fe       4.82868876       4.43088794       2.23984046
Fe       9.18448788       1.47696265       7.87097927
Fe       7.09769873       1.47696265       2.69479314
P        6.68479594       1.47696265       5.89493343
P        9.01012348       4.43088794       9.09255804
P        5.06869109       1.47696265       0.88623971
P        7.44688347       4.43088794       4.00853881
O        8.22067107       1.47696265       6.01442620
O        5.78619492       4.43088794       8.85064509
O        8.32910176       1.47696265       1.16999910
O        5.96729211       4.43088794       3.84195137
O        5.47441501       1.47696265       9.45275158
O        7.94668124       4.43088794       5.46866108
O        6.27907201       1.47696265       4.44405787
O        8.61330704       4.43088794       0.52925970
O        6.06725567       0.27721506       6.67057735
O        8.38502584       5.62159947       8.31332389
O        8.38502584       3.24017642       8.31332389
O        6.06725567       2.67671024       6.67057735
O        5.68623136       2.67671024       1.66188363
O        8.15629778       3.21595762       3.32476651
O        8.15629778       5.64581827       3.32476651
O        5.68623136       0.27721506       1.66188363
