51
Lattice="9.436883476733275 0.0017414483873060705 -0.012930218677743573 0.0011370612148101289 5.89066702519845 -0.0067552918860289985 -0.01437723263695995 -0.011580676542036783 9.996067083356786" Properties=species:S:1:pos:R:3 volume=555.6749013608364 potential_energy=-495.5309444284814 energy=-495.5309444284814 state=5 pbc="T T T"
Li      -0.03466343       0.02944359       5.00307944
Li       2.37205606       0.00565731       0.01075561
Li       2.37084018       2.93406589      -0.00511979
Fe       2.20245217       4.39962540       7.17939612
Fe       0.09743736       4.38923062       2.26157137
Fe       4.64939365       1.45623445       7.67479692
Fe       2.54171094       1.47605379       2.85330420
P        1.94463543       1.47741251       6.00819844
P        4.31416395       4.40978613       8.97765692
P        0.40003068       1.46501148       1.01840184
P        2.74742255       4.44175513       4.02973462
O        3.43402551       1.46282925       6.17008978
O        1.14962347       4.41214484       8.95457573
O        3.54109873       1.47301217       1.02687083
O        1.23280621       4.50617657       3.87444912
O        0.87885499       1.46734001       9.55230678
O        3.11602256       4.41191612       5.49302009
O        1.51470954       1.43664614       4.54433843
O        3.83734505       4.42363179       0.44437763
O        1.23396782       0.25323045       6.69808648
O        3.59021882       5.61611980       8.29248587
O        3.60093679       3.19704626       8.29742569
O        1.27104955       2.64854897       6.77692367
O        1.10832315       2.67674268       1.71159390
O        3.37303793       3.24324977       3.25395760
O        3.43220022       5.62246077       3.27139390
O        1.11789144       0.25824878       1.69934358
Fe       6.95750217       4.40534871       7.21588639
Fe       4.85544596       4.42701881       2.23113673
Fe       9.24632539       1.48355331       7.78564977
Fe       7.14429203       1.48060866       2.70345333
P        6.70316007       1.43894447       5.91215741
P        9.04852132       4.41485891       9.06166210
P        5.07716018       1.47476734       0.89248803
P        7.46032360       4.39652045       4.00293735
O        8.21544862       1.37111435       6.09291483
O        5.79426610       4.41195273       8.80442685
O        8.35413940       1.46050002       1.15647176
O        5.97474169       4.41948229       3.80764523
O        5.44641174       1.46102269       9.43243071
O        7.88637740       4.44411038       5.46583431
O        6.33506886       1.46361552       4.45081131
O        8.67941724       4.41584559       0.52209441
O        6.01673067       0.25521024       6.66675250
O        8.41714542       5.60770809       8.29403397
O        8.41482696       3.22207150       8.28703235
O        6.07965720       2.64443393       6.68109698
O        5.70459699       2.67237840       1.65996099
O        8.13483997       3.21635101       3.24702140
O        8.18058278       5.61813441       3.31332165
O        5.71468791       0.28110855       1.66111339
