50
Lattice="9.481762241443263 -1.6605699562745116e-17 7.06610257905624e-17 7.96730082584146e-17 5.8861551665381 -0.016272189034355785 -1.2722610369400408e-15 -0.02797767361713681 9.99288940738347" Properties=species:S:1:pos:R:3 volume=557.7100712406649 potential_energy=-490.0778468917406 energy=-490.0778468917406 state=6 pbc="T T T"
Li      -0.01645775      -0.00087854       5.00481029
Li       2.38689831       0.01311029       0.00836559
Fe       2.25447402       4.35472049       7.22040658
Fe       0.11596654       4.36870933       2.22396188
Fe       4.66196824       1.45367695       7.70623231
Fe       2.52582410       1.48676200       2.80212436
P        1.98028560       1.45479700       5.99955462
P        4.36390132       4.38024694       8.98776129
P        0.39015496       1.46878584       1.00310992
P        2.74289604       4.43148876       4.02760851
O        3.46781616       1.43239754       6.18187825
O        1.14119437       4.48629476       8.85135262
O        3.58558650       1.37454853       1.12499451
O        1.22924619       4.50028360       3.85490791
O        0.80580873       1.41418974       9.52837476
O        3.09491199       4.39248780       5.49386725
O        1.56463183       1.42817858       4.53193006
O        3.94899026       4.45165206       0.46167407
O        1.25273112       0.23908214       6.67801497
O        3.62759622       5.59371969       8.30361917
O        3.68851542       3.20160575       8.23305325
O        1.30393921       2.62858203       6.76612862
O        1.06650135       2.64257086       1.76968392
O        3.37585326       3.23116608       3.25828427
O        3.43773454       5.60890280       3.27945404
O        1.11770944       0.25307097       1.68157026
Fe       6.99201220       4.40508792       7.22139069
Fe       4.86019060       4.41907676       2.22494598
Fe       9.32637870       1.47277316       7.79856906
Fe       7.19023456       1.46766579       2.70978760
P        6.75507297       1.43403026       5.93354361
P        9.10930676       4.41749992       9.02405321
P        5.09712983       1.44801910       0.93709891
P        7.48830148       4.39423578       3.99131658
O        8.26661630       1.36055970       6.12143921
O        5.84884847       4.40651779       8.78646318
O        8.38438664       1.44638638       1.18543355
O        6.00335433       4.42050662       3.79001847
O        5.44918929       1.44511218       9.46421728
O        7.90321254       4.43766322       5.45811877
O        6.40301351       1.45910102       4.46777257
O        8.75729081       4.40647664       0.49742254
O        6.05274395       0.25664844       6.68293000
O        8.41446826       5.59491396       8.27589874
O        8.47634954       3.21717724       8.25472897
O        6.12650144       2.63736896       6.69678108
O        5.72570136       2.65135779       1.70033638
O        8.16368738       3.21559458       3.23660855
O        8.22460658       5.60770853       3.30717447
O        5.79945886       0.27063727       1.68648529
