49
Lattice="9.549942476297439 -0.00014522425627114282 0.021779584300855342 -4.401627028176811e-05 5.877940592982668 -0.009352658230312465 0.024280041042911333 -0.01610174412129199 9.972269909114914" Properties=species:S:1:pos:R:3 volume=559.7787981609043 potential_energy=-484.080567218433 energy=-484.080567218433 state=7 pbc="T T T"
Li       0.01214002      -0.00805087       4.98613495
Fe       2.29102712       4.37627677       7.26333192
Fe       0.17112530       4.37983264       2.18557392
Fe       4.66440795       1.43982653       7.74073780
Fe       2.54707651       1.46512906       2.75631858
P        2.00672882       1.46376247       5.98593866
P        4.40793079       4.39208018       9.00802517
P        0.40856827       1.46068697       0.98001664
P        2.76795009       4.42019880       4.03930214
O        3.49218648       1.44451997       6.19768134
O        1.10802276       4.40541895       8.76056592
O        3.67699102       1.46144991       1.21739480
O        1.25600936       4.48998967       3.84206636
O        0.74826122       1.45583623       9.47400602
O        3.09467863       4.39439952       5.51172016
O        1.61609877       1.42594775       4.51222595
O        4.06913960       4.40850620       0.51360939
O        1.26786225       0.24925983       6.65576513
O        3.70706395       5.57806715       8.26738173
O        3.72073657       3.20025107       8.26738850
O        1.31565970       2.63552981       6.73513036
O        1.09426362       2.65292393       1.72697531
O        3.41332410       3.22133908       3.28717088
O        3.47554679       5.59713519       3.29939028
O        1.10122554       0.27663059       1.72159634
Fe       7.02710199       4.39656457       7.22837826
Fe       4.90977055       4.42186709       2.24395903
Fe       9.40305320       1.48186099       7.79912292
Fe       7.28315138       1.48541685       2.72136492
P        6.80622841       1.44149483       5.94539469
P        9.16561023       4.40100665       9.00468020
P        5.16624772       1.46961344       0.97667167
P        7.56744969       4.39793115       3.99875818
O        8.31816915       1.37170396       6.14263048
O        5.89718748       4.40024372       8.76730204
O        8.46615574       1.45627468       1.22413092
O        6.08199202       4.41717365       3.78701550
O        5.50503890       1.45318742       9.47108744
O        7.95807973       4.43574588       5.47247089
O        6.47949987       1.46729410       4.47297668
O        8.82591728       4.40585739       0.51069082
O        6.09863171       0.26455843       6.68530656
O        8.47295297       5.58506303       8.26310050
O        8.47991488       3.20876969       8.25772152
O        6.16085440       2.64035455       6.69752596
O        5.85344193       2.66144255       1.71730833
O        8.25851880       3.22616382       3.24956647
O        8.30631625       5.61243380       3.32893170
O        5.86711455       0.28362648       1.71731510
