56
Lattice="9.320925066427652 -5.219302721914942e-18 1.6386217113173e-16 2.571230582419729e-16 5.970209714710423 -1.8000076459308088e-14 8.138703180440708e-17 -2.985478810185566e-14 10.22402499881571" Properties=species:S:1:pos:R:3 volume=568.9452894812688 potential_energy=-522.04630336986 energy=-522.04630336986 state=0 converged=T pbc="T T T"
Li       0.00000000      -0.00000000       5.11201250
Li       2.33023127       0.00000000      -0.00000000
Li       2.33023127       2.98510486      -0.00000000
Li       0.00000000       2.98510486       5.11201250
Fe       2.21218742       4.47765729       7.34456796
Fe       0.11804385       4.47765729       2.23255546
Fe       4.54241869       1.49255243       7.99146954
Fe       2.44827511       1.49255243       2.87945704
P        1.95330547       1.49255243       6.08421632
P        4.28353674       4.47765729       9.25182117
P        0.37692580       1.49255243       0.97220382
P        2.70715706       4.47765729       4.13980867
O        3.47207137       1.49255243       6.08867944
O        1.14184010       4.47765729       9.24735806
O        3.51862243       1.49255243       0.97666694
O        1.18839117       4.47765729       4.13534556
O        0.96857208       1.49255243       9.77669075
O        3.29880335       4.47765729       5.55934675
O        1.36165918       1.49255243       4.66467825
O        3.69189045       4.47765729       0.44733425
O        1.33408645       0.26915953       6.81279720
O        3.66431772       5.70105018       8.52324029
O        3.66431772       3.25426439       8.52324029
O        1.33408645       2.71594532       6.81279720
O        0.99614481       2.71594532       1.70078471
O        3.32637608       3.25426439       3.41122779
O        3.32637608       5.70105018       3.41122779
O        0.99614481       0.26915953       1.70078471
Li       4.66046253       0.00000000       5.11201250
Li       6.99069380       0.00000000      -0.00000000
Li       6.99069380       2.98510486      -0.00000000
Li       4.66046253       2.98510486       5.11201250
Fe       6.87264995       4.47765729       7.34456796
Fe       4.77850638       4.47765729       2.23255546
Fe       9.20288122       1.49255243       7.99146954
Fe       7.10873765       1.49255243       2.87945704
P        6.61376800       1.49255243       6.08421632
P        8.94399927       4.47765729       9.25182117
P        5.03738833       1.49255243       0.97220382
P        7.36761960       4.47765729       4.13980867
O        8.13253390       1.49255243       6.08867944
O        5.80230263       4.47765729       9.24735806
O        8.17908497       1.49255243       0.97666694
O        5.84885370       4.47765729       4.13534556
O        5.62903462       1.49255243       9.77669075
O        7.95926588       4.47765729       5.55934675
O        6.02212172       1.49255243       4.66467825
O        8.35235298       4.47765729       0.44733425
O        5.99454899       0.26915953       6.81279720
O        8.32478025       5.70105018       8.52324029
O        8.32478025       3.25426439       8.52324029
O        5.99454899       2.71594532       6.81279720
O        5.65660735       2.71594532       1.70078471
O        7.98683861       3.25426439       3.41122779
O        7.98683861       5.70105018       3.41122779
O        5.65660735       0.26915953       1.70078471
55
Lattice="9.334882821831846 0.007710057417447302 -0.014497077188490755 0.004951115870735614 5.955517107375694 -0.0017727442156569094 -0.01595730890837692 -0.0030291957599961937 10.181769765352094" Properties=species:S:1:pos:R:3 volume=566.0440455392148 potential_energy=-517.0484094555729 energy=-517.0484094555729 state=1 converged=T pbc="T T T"
Li      -0.00797865      -0.00151460       5.09088488
Li       2.34062410       0.01654008      -0.00252602
Li       2.34324400       2.97183218       0.00083653
Li      -0.00550310       2.97624396       5.08999851
Fe       2.23040147       4.45971468       7.30791392
Fe       0.14090785       4.47416059       2.23754434
Fe       4.56472467       1.50615552       7.89306157
Fe       2.48599676       1.49937422       2.89586260
P        1.94418821       1.45793866       6.10019258
P        4.28239819       4.47296557       9.22871845
P        0.37751555       1.48985618       0.97552605
P        2.70381381       4.45543628       4.13798203
O        3.44510532       1.38664991       6.17129709
O        1.13025348       4.46925246       9.18237690
O        3.52400120       1.49271686       0.96082973
O        1.17496537       4.46585895       4.10839126
O        0.93503900       1.48257204       9.72988500
O        3.23189248       4.49673382       5.56397373
O        1.38966798       1.48257250       4.66449972
O        3.71855084       4.46981882       0.47334325
O        1.25542010       0.24845737       6.80654460
O        3.65916419       5.69941693       8.51241037
O        3.65177816       3.25151988       8.50533394
O        1.32414275       2.69058494       6.81798905
O        1.00108374       2.71663618       1.68975568
O        3.28153123       3.27386747       3.32937713
O        3.33055120       5.69277511       3.41249128
O        1.01974535       0.27628160       1.70080010
Li       4.65946276       0.00234043       5.08363634
Li       6.99425872      -0.00883002      -0.01197105
Li       6.99658993       2.99139498      -0.01710635
Fe       6.83787987       4.46082375       7.26963734
Fe       4.75915195       4.45404245       2.27243837
Fe       9.18296878       1.48603738       7.92795561
Fe       7.09347516       1.50048329       2.85758603
P        6.62006282       1.50476169       6.02751791
P        8.94636108       4.47034179       9.18997389
P        5.04147844       1.48723240       0.93678149
P        7.37968842       4.50225931       4.06530736
O        8.14891125       1.49433902       6.05710869
O        5.79987543       4.46748111       9.20467022
O        8.19362315       1.49094551       0.98312304
O        5.87877131       4.57354806       3.99420286
O        5.60532579       1.49037915       9.69215670
O        7.93420865       4.47762547       5.50100022
O        6.09198415       1.46346414       4.60152622
O        8.38883762       4.47762592       0.43561494
O        5.99332543       0.26742286       6.75300866
O        8.30413128       5.68391637       8.46469984
O        8.32279289       3.24356179       8.47574426
O        6.04234539       2.68633050       6.83612281
O        5.67209847       2.70867809       1.66016601
O        7.99973387       3.26961303       3.34751089
O        8.06845652       5.71174059       3.35895534
O        5.66471244       0.26078104       1.65308958
54
Lattice="9.351016131469907 -1.0213031526130298e-16 -3.4280461352375294e-16 -1.7861956117650887e-16 5.93748813617496 0.0048320909454969965 1.7064271748476895e-16 0.00825669625341479 10.13332753238864" Properties=species:S:1:pos:R:3 volume=562.6176512408181 potential_energy=-511.934169014771 energy=-511.934169014771 state=2 converged=T pbc="T T T"
Li       2.33053600      -0.00730245      -0.00533965
Li       2.33142024       2.98238511       0.00194349
Li      -0.01069556       2.94950853       5.06748238
Fe       2.16846741       4.46160627       7.27084793
Fe       0.07184025       4.47830163       2.27309137
Fe       4.56037209       1.49372504       7.90801383
Fe       2.45289001       1.48959669       2.84135006
P        1.96480742       1.47868596       6.02165543
P        4.29495028       4.43440964       9.12471854
P        0.37677896       1.51629331       0.98567744
P        2.71831182       4.43028129       4.05805477
O        3.49384765       1.49418432       6.06893575
O        1.15832497       4.46187904       9.16234419
O        3.51941444       1.49005597       1.00227199
O        1.21774536       4.35678546       3.97405872
O        0.92059222       1.49920769       9.67779763
O        3.25898605       4.44857809       5.49939597
O        1.45784900       1.52303145       4.58797122
O        3.75427604       4.44444974       0.43273221
O        1.37888397       0.29641113       6.81983783
O        3.66963999       5.66955979       8.41969310
O        3.58806250       3.23527815       8.41839203
O        1.31330943       2.70586017       6.74241130
O        1.07082415       2.72404286       1.68542645
O        3.42519959       3.23114980       3.35172827
O        3.34362211       5.66543144       3.35302934
O        1.00981109       0.28350932       1.69516891
Li       4.68272610      -0.00317410       5.06132411
Li       7.02395766       2.94538018       0.00081862
Li       4.68184186       2.98651346       5.06860725
Fe       6.94142185       4.48242998       7.33975513
Fe       4.84479469       4.45747792       2.20418416
Fe       9.23092633       1.46694385       7.88977582
Fe       7.13335190       1.46281550       2.82311205
P        6.63648314       1.52042166       6.05234120
P        8.98125021       4.46913115       9.21218008
P        5.04845468       1.47455761       0.95499166
P        7.38302802       4.46500280       4.14551632
O        8.13625700       1.58517244       6.14284447
O        5.79551674       4.36091381       9.04072248
O        8.22802123       1.58104409       1.07618071
O        5.85493713       4.45775069       4.09568043
O        5.55541310       1.52715980       9.65463498
O        7.89536184       4.42284095       5.57812937
O        6.09266988       1.49507934       4.61113387
O        8.46891639       4.41871260       0.51146561
O        6.00345101       0.28763767       6.76183268
O        8.39020200       5.65258196       8.41472337
O        8.34838760       3.23271370       8.49221696
O        5.94243795       2.72817121       6.75209022
O        5.69995267       2.70173182       1.67574753
O        8.01589063       3.22858536       3.42555319
O        7.97407623       5.64845361       3.34805961
O        5.63437813       0.29228279       1.75317407
53
Lattice="9.378182859536107 -0.0017780360341687449 -0.005986629125202958 -0.001142801716458511 5.919539692380533 0.0123825306644573 -0.006593898217210632 0.02118839729283822 10.087174134494463" Properties=species:S:1:pos:R:3 volume=559.9819731245395 potential_energy=-506.71930481248376 energy=-506.71930481248376 state=3 converged=T pbc="T T T"
Li       2.34454571      -0.00044451      -0.00149666
Li       2.34397431       2.95932534       0.00469461
Li      -0.01159290       2.94942653       5.04679814
Fe       2.20593203       4.46495307       7.24002628
Fe       0.07688945       4.45765361       2.27562116
Fe       4.60446528       1.48218546       7.82094219
Fe       2.47542270       1.47488600       2.85653707
P        1.97445074       1.51446352       6.04210660
P        4.31377218       4.43102581       9.10446124
P        0.36758255       1.50881326       0.99210211
P        2.70690399       4.42537556       4.05445675
O        3.48229952       1.59977829       6.14838243
O        1.15967825       4.45309713       9.10171368
O        3.52167648       1.48674194       0.99484968
O        1.19905521       4.34006078       3.94818092
O        0.89794399       1.50546773       9.63490925
O        3.18466136       4.40950275       5.49947228
O        1.49669337       1.53033632       4.59709107
O        3.78341074       4.43437134       0.46165410
O        1.38343260       0.32507076       6.83436675
O        3.67882973       5.66492143       8.40024088
O        3.60322661       3.23137319       8.40602662
O        1.25743220       2.72488560       6.74530671
O        1.07812812       2.70846588       1.69053673
O        3.42392253       3.21495347       3.35125664
O        3.29792213       5.61476832       3.26219660
O        1.00252500       0.27491764       1.69632247
Li       7.03306574       2.95843632       0.00170129
Li       4.69294763       2.99041255       5.04976521
Fe       6.93717359       4.48848662       7.28243451
Fe       4.81017036       4.46075338       2.25223820
Fe       9.24936723       1.47730765       7.83833852
Fe       7.12236400       1.44957441       2.80814221
P        6.66657602       1.51454701       6.01333445
P        9.00943363       4.46297925       9.15490788
P        5.05010396       1.47508179       0.93566884
P        7.39296157       4.42351402       4.07724227
O        8.17349525       1.59510142       6.12991675
O        5.81375521       4.36249884       9.00878194
O        8.24578238       1.57556219       1.08179478
O        5.88604234       4.34295961       3.96065997
O        5.54368753       1.53547588       9.58570895
O        7.86962229       4.40963045       5.52279232
O        6.18991530       1.52843058       4.56778440
O        8.51585006       4.40258516       0.50486777
O        6.06806028       0.32288515       6.80241864
O        8.41283650       5.64576972       8.36113005
O        8.35406063       3.23471583       8.44059540
O        5.96074551       2.73072734       6.71504847
O        5.70547696       2.70334521       1.64998132
O        8.09879208       3.20733370       3.37552825
O        7.99147731       5.61517588       3.28815809
O        5.64670109       0.29229132       1.72944667
52
Lattice="9.406194564294871 8.517882221936163e-16 2.8027679477988867e-15 5.259917371828598e-16 5.903989955947475 0.02179112683799086 1.1416707867397356e-15 0.037349810390166084 10.047064507392967" Properties=species:S:1:pos:R:3 volume=557.9468106987208 potential_energy=-501.50034208852605 energy=-501.50034208852605 state=4 converged=T pbc="T T T"
Li       2.35154864       2.95199498       0.01089556
Li       0.00000000       2.97066988       5.03442782
Fe       2.25972969       4.48038413       7.27449488
Fe       0.09181895       4.46170923       2.25096263
Fe       4.61127833       1.47963054       7.81789301
Fe       2.44336760       1.46095564       2.79436075
P        1.99845268       1.51993510       6.00729039
P        4.35000133       4.44007957       9.08509749
P        0.35309596       1.50126020       0.98375814
P        2.70464460       4.42140466       4.06156524
O        3.50581285       1.60476028       6.12978434
O        1.15426421       4.35525439       8.96260355
O        3.54883307       1.58608538       1.10625209
O        1.19728443       4.33657948       3.93907129
O        0.82023605       1.54912080       9.58208057
O        3.17178469       4.41089387       5.51030731
O        1.53131260       1.53044590       4.55854832
O        3.88286124       4.39221896       0.48677506
O        1.39651343       0.32957051       6.79442160
O        3.74806208       5.63044416       8.29796629
O        3.62637771       3.23194155       8.38801059
O        1.27482907       2.72807313       6.70437730
O        1.07671957       2.70939822       1.68084505
O        3.42826821       3.21326664       3.36447833
O        3.30658385       5.61176925       3.27443404
O        0.95503521       0.31089561       1.77088934
Li       7.05464592       2.95199498       0.01089556
Li       4.70309728       2.97066988       5.03442782
Fe       6.96282697       4.48038413       7.27449488
Fe       4.79491624       4.46170923       2.25096263
Fe       9.31437561       1.47963054       7.81789301
Fe       7.14646488       1.46095564       2.79436075
P        6.70154997       1.51993510       6.00729039
P        9.05309861       4.44007957       9.08509749
P        5.05619324       1.50126020       0.98375814
P        7.40774188       4.42140466       4.06156524
O        8.20891013       1.60476028       6.12978434
O        5.85736149       4.35525439       8.96260355
O        8.25193036       1.58608538       1.10625209
O        5.90038172       4.33657948       3.93907129
O        5.52333333       1.54912080       9.58208057
O        7.87488197       4.41089387       5.51030731
O        6.23440988       1.53044590       4.55854832
O        8.58595852       4.39221896       0.48677506
O        6.09961072       0.32957051       6.79442160
O        8.45115936       5.63044416       8.29796629
O        8.32947499       3.23194155       8.38801059
O        5.97792635       2.72807313       6.70437730
O        5.77981685       2.70939822       1.68084505
O        8.13136550       3.21326664       3.36447833
O        8.00968113       5.61176925       3.27443404
O        5.65813249       0.31089561       1.77088934
51
Lattice="9.436538886656612 -0.003702377527178591 -0.020325731881038412 -0.002406062526164498 5.891851598590919 -0.019350262635506543 -0.02254001786582294 -0.033214549025602384 10.01400560288971" Properties=species:S:1:pos:R:3 volume=556.7567036601004 potential_energy=-495.8513902104648 energy=-495.8513902104648 state=5 converged=T pbc="T T T"
Li       2.34495614      -0.01158620      -0.01335764
Fe       2.21184690       4.37978840       7.17858624
Fe       0.07110423       4.40675661       2.26262648
Fe       4.58477062       1.48065287       7.76757819
Fe       2.43979843       1.48844723       2.76016980
P        1.98293549       1.42056165       5.95188502
P        4.33386882       4.40782508       9.01101005
P        0.34715944       1.45786095       0.95748312
P        2.72639720       4.40058035       3.98093646
O        3.49666406       1.34886692       6.11544236
O        1.13235875       4.48678150       8.89105373
O        3.57121625       1.36694693       1.09522700
O        1.23857846       4.42716921       3.80731580
O        0.77635927       1.40141746       9.51772493
O        3.16186454       4.43369629       5.44207741
O        1.60898727       1.45661288       4.49156835
O        3.90656912       4.44526962       0.45204544
O        1.29223895       0.24344256       6.70928524
O        3.60639854       5.61738628       8.32514679
O        3.71133916       3.22440796       8.22695792
O        1.36672709       2.62529774       6.72907705
O        0.96261560       2.64899261       1.73045880
O        3.38789754       3.22029329       3.21138856
O        3.45093836       5.61554558       3.28982840
O        1.08220373       0.25204831       1.65210461
Li       4.70699943      -0.01845846       4.99683994
Li       7.09158275       0.00788382      -0.00696809
Fe       6.97179437       4.36648744       7.21415981
Fe       4.82682219       4.37428180       2.20675142
Fe       9.34048858       1.44817806       7.71170313
Fe       7.19974591       1.47514628       2.79574337
P        6.68519560       1.45435433       5.99339315
P        9.06443336       4.39707372       9.01684649
P        5.07772398       1.44710959       0.96331956
P        7.42865732       4.43437302       4.02244458
O        8.17301434       1.42776546       6.16701380
O        5.84037656       4.48798774       8.87910261
O        8.27923406       1.36815318       1.08327588
O        5.91492875       4.50606775       3.85888724
O        5.50502368       1.40966506       9.52228417
O        7.80260553       4.39832179       5.48276125
O        6.24972827       1.42123838       4.53225220
O        8.63523353       4.45351721       0.45660468
O        5.96065445       0.23938909       6.68450121
O        8.32938907       5.60288636       8.32222500
O        8.44897721       3.20594206       8.24387081
O        6.02369526       2.63464138       6.76294105
O        5.70025365       2.63052671       1.74737169
O        8.04486572       3.22963694       3.24525255
O        8.11935386       5.61149211       3.26504437
O        5.80519427       0.23754839       1.64918282
50
Lattice="9.481762241443532 3.3963732702038015e-17 4.158788810602665e-17 9.250304829581094e-18 5.886155166537794 0.01627218903435719 -1.2094061710686048e-15 0.027977673617162593 9.992889407383359" Properties=species:S:1:pos:R:3 volume=557.7100712406456 potential_energy=-490.0778468917408 energy=-490.0778468917408 state=6 converged=T pbc="T T T"
Li       0.01645775       2.97017671       4.99621521
Fe       2.29152768       4.43872105       7.29123790
Fe       0.15538354       4.44382842       2.20245644
Fe       4.62157164       1.50397685       7.75980733
Fe       2.48975004       1.48998801       2.76336263
P        1.99346076       1.47913587       5.99343673
P        4.38463241       4.41907435       9.06392659
P        0.37245548       1.50240002       0.96070010
P        2.72668927       4.40508552       4.06748189
O        3.47840791       1.50540671       6.19473484
O        1.09737560       4.41744164       8.81559196
O        3.63291377       1.49141788       1.19829013
O        1.21514594       4.33161495       3.87958629
O        0.72447143       1.49137673       9.48733077
O        3.07874873       4.43015627       5.53325293
O        1.57854970       1.52256331       4.52663454
O        4.03257295       4.41616744       0.53680822
O        1.31807486       0.30049467       6.74814477
O        3.75606088       5.62241305       8.30068912
O        3.68230338       3.24169253       8.31454021
O        1.25715566       2.69260862       6.67757885
O        1.06729398       2.67981405       1.70885457
O        3.42901830       3.22770369       3.31809551
O        3.35526080       5.60842422       3.30424442
O        1.00541270       0.30207733       1.73002434
Li       7.09486393       2.95618788      -0.00022949
Fe       6.95593814       4.45781725       7.19890115
Fe       4.81979400       4.42473221       2.29479320
Fe       9.36579570       1.45360942       7.76079143
Fe       7.22728822       1.43962058       2.76434673
P        6.73886620       1.51638885       5.95714481
P        9.09160728       4.43984110       8.99791558
P        5.11786092       1.46514703       0.99699203
P        7.50147664       4.42585226       4.00147088
O        8.25251605       1.58518369       6.12984540
O        5.89617574       4.34560379       8.87603099
O        8.34056787       1.57119485       1.13340070
O        6.01394608       4.40345280       3.81914725
O        5.53277198       1.53655215       9.52307925
O        7.91713041       4.39923384       5.46909544
O        6.38685025       1.47738789       4.49088607
O        8.67595351       4.38524500       0.47265074
O        6.10590898       0.31606617       6.72646904
O        8.41526089       5.61362612       8.23134158
O        8.36405280       3.22412623       8.31945524
O        6.04402770       2.69380289       6.70529928
O        5.85416602       2.67861978       1.68113414
O        8.22903112       3.21013739       3.32301054
O        8.17782303       5.59963728       3.23489688
O        5.79324682       0.28650584       1.75170006
49
Lattice="9.549942476298435 -0.00014522425617201384 0.02177958430120336 -4.4016270213937014e-05 5.877940592981677 -0.009352658230387213 0.024280041043305257 -0.016101744121386208 9.972269909113813" Properties=species:S:1:pos:R:3 volume=559.7787981608059 potential_energy=-484.0805672184343 energy=-484.0805672184343 state=7 converged=T pbc="T T T"
Fe       2.25213075       4.39663718       7.21748847
Fe       0.13479931       4.42193971       2.23306924
Fe       4.62808196       1.48193360       7.78823312
Fe       2.50818014       1.48548946       2.71047513
P        2.03125717       1.44156744       5.93450490
P        4.39063899       4.40107926       8.99379041
P        0.39127648       1.46968605       0.96578188
P        2.79247845       4.39800377       3.98786838
O        3.54319791       1.37177657       6.13174069
O        1.12221624       4.40031633       8.75641225
O        3.69118450       1.45634729       1.21324113
O        1.30702078       4.41724626       3.77612570
O        0.73006766       1.45326003       9.46019765
O        3.18310849       4.43581849       5.46158110
O        1.70452864       1.46736671       4.46208689
O        4.05094605       4.40593000       0.49980103
O        1.32366048       0.26463105       6.67441676
O        3.69798173       5.58513564       8.25221071
O        3.70494365       3.20884230       8.24683173
O        1.38588316       2.64042716       6.68663616
O        1.07847070       2.66151517       1.70641854
O        3.48354756       3.22623643       3.23867668
O        3.53134501       5.61250641       3.31804191
O        1.09214331       0.28369909       1.70642531
Li       4.78711126      -0.00812348       4.99702475
Fe       7.06599836       4.37620416       7.27422171
Fe       4.94609654       4.37976003       2.19646371
Fe       9.43937919       1.43975392       7.75162759
Fe       7.32204775       1.46505645       2.76720837
P        6.78170005       1.46368986       5.99682845
P        9.18290202       4.39200757       9.01891496
P        5.18353951       1.46061436       0.99090643
P        7.54292133       4.42012618       4.05019194
O        8.26715772       1.44444736       6.20857113
O        5.88299400       4.40534633       8.77145571
O        8.45196226       1.46137729       1.22828459
O        6.03098059       4.48991706       3.85295615
O        5.52323246       1.45576362       9.48489581
O        7.86964986       4.39432691       5.52260995
O        6.39107001       1.42587513       4.52311574
O        8.84411084       4.40843359       0.52449919
O        6.04283349       0.24918722       6.66665493
O        8.48203519       5.57799453       8.27827153
O        8.49570780       3.20017846       8.27827829
O        6.09063094       2.63545719       6.74602015
O        5.86923486       2.65285132       1.73786510
O        8.18829534       3.22126646       3.29806067
O        8.25051803       5.59706258       3.31028007
O        5.87619677       0.27655798       1.73248613
48
Lattice="9.636825956176121 -4.14325576398787e-17 -4.7556296974629507e-14 2.3303974509659363e-16 5.859087028673566 3.3617195122766585e-14 -5.830224662065357e-14 5.60334897552962e-14 9.931771268766187" Properties=species:S:1:pos:R:3 volume=560.777620588956 potential_energy=-477.8357090556375 energy=-477.8357090556375 state=8 converged=T pbc="T T T"
Fe       2.23242872       4.39431527       7.20077416
Fe       0.17677777       4.39431527       2.23488853
Fe       4.64163521       1.46477176       7.69688274
Fe       2.58598425       1.46477176       2.73099710
P        1.98997341       1.46477176       5.93130046
P        4.39917990       4.39431527       8.96635645
P        0.41923308       1.46477176       0.96541482
P        2.82843957       4.39431527       4.00047081
O        3.48077965       1.46477176       6.18373316
O        1.07157316       4.39431527       8.71392374
O        3.74683982       1.46477176       1.21784752
O        1.33763333       4.39431527       3.74803811
O        0.70084211       1.46477176       9.41240981
O        3.11004860       4.39431527       5.48524709
O        1.70836438       1.46477176       4.44652418
O        4.11757087       4.39431527       0.51936145
O        1.28597444       0.27796553       6.65911023
O        3.69518093       5.58112150       8.23854667
O        3.69518093       3.20750904       8.23854667
O        1.28597444       2.65157799       6.65911023
O        1.12323204       2.65157799       1.69322460
O        3.53243853       3.20750904       3.27266103
O        3.53243853       5.58112150       3.27266103
O        1.12323204       0.27796553       1.69322460
Fe       7.05084170       4.39431527       7.20077416
Fe       4.99519074       4.39431527       2.23488853
Fe       9.46004819       1.46477176       7.69688274
Fe       7.40439723       1.46477176       2.73099710
P        6.80838639       1.46477176       5.93130046
P        9.21759288       4.39431527       8.96635645
P        5.23764605       1.46477176       0.96541482
P        7.64685254       4.39431527       4.00047081
O        8.29919262       1.46477176       6.18373316
O        5.88998613       4.39431527       8.71392374
O        8.56525280       1.46477176       1.21784752
O        6.15604631       4.39431527       3.74803811
O        5.51925509       1.46477176       9.41240981
O        7.92846158       4.39431527       5.48524709
O        6.52677736       1.46477176       4.44652418
O        8.93598385       4.39431527       0.51936145
O        6.10438742       0.27796553       6.65911023
O        8.51359391       5.58112150       8.23854667
O        8.51359391       3.20750904       8.23854667
O        6.10438742       2.65157799       6.65911023
O        5.94164502       2.65157799       1.69322460
O        8.35085151       3.20750904       3.27266103
O        8.35085151       5.58112150       3.27266103
O        5.94164502       0.27796553       1.69322460
