12
Lattice="2.808856666664756 -4.4459462275231154e-17 -3.685232715568183e-17 -1.4044283333323773 2.4325412289209516 -1.787158157719658e-15 -5.964017854141934e-16 -4.10363485633508e-15 14.03529436109253" Properties=species:S:1:pos:R:3 volume=95.89838942591237 potential_energy=-103.58454946187607 energy=-103.58454946187607 state=0 removed_atom="_JSON [-1]" pbc="T T T"
Li      -0.00000000       0.00000000      -0.00000000
Li       1.40442834       0.81084707       4.67843146
Li      -0.00000001       1.62169416       9.35686290
Co       0.00000000       1.62169415       2.33921573
Co      -0.00000000      -0.00000000       7.01764718
Co       1.40442833       0.81084708      11.69607863
O        0.00000000      -0.00000000       3.35986220
O        1.40442834       0.81084707       1.31856924
O        1.40442834       0.81084707       8.03829365
O       -0.00000000       1.62169415       5.99700071
O       -0.00000000       1.62169415      12.71672512
O       -0.00000000       0.00000000      10.67543216
