11
Lattice="2.8012477657769845 -1.8001315543796382e-11 -1.5810179025378045e-10 -1.4006238829040811 2.4259517274482683 1.580961903134711e-10 -7.900024232705074e-10 4.5610542961350265e-10 13.586619218087725" Properties=species:S:1:pos:R:3 volume=92.33047757598693 potential_energy=-97.31026454845869 energy=-97.31026454845869 state=1 pbc="T T T"
Li       0.00000000      -0.00000000      -0.10193566
Li       1.40062388       0.80865058       4.63080872
Co       0.00000000       1.61730115       2.26443653
Co       0.00000000      -0.00000000       6.98995318
Co       1.40062388       0.80865058      11.12553911
O        0.00000000      -0.00000000       3.28579274
O        1.40062388       0.80865058       1.24308032
O        1.40062388       0.80865057       7.86948798
O        0.00000000       1.61730115       5.92492043
O        0.00000000       1.61730115      12.19057185
O       -0.00000000       0.00000000      10.24600431
