10
Lattice="2.7892496559625672 -2.33133266783867e-12 -9.19444836497052e-11 -1.394624827983302 2.4155610595594252 9.194306153034866e-11 -4.914003394430631e-10 2.8370934294080084e-10 13.14330096777442" Properties=species:S:1:pos:R:3 volume=88.554342115788 potential_energy=-90.83814516079187 energy=-90.83814516079187 state=2 pbc="T T T"
Li      -0.00000000       0.00000000       0.01585844
Co      -0.00000000       1.61037404       2.40258899
Co      -0.00000000       0.00000000       6.57165102
Co       1.39462483       0.80518702      10.76826099
O       -0.00000000       0.00000000       3.28785167
O        1.39462483       0.80518702       1.33599272
O        1.39462483       0.80518702       7.50117083
O       -0.00000000       1.61037404       5.64137797
O       -0.00000000       1.61037404      11.83560449
O       -0.00000000       0.00000000       9.88310686
