9
Lattice="2.768743544790949 1.9421903523852497e-16 1.1753901783431823e-16 -1.384371772395474 2.3978022463531463 7.14612313005352e-15 4.977693530603649e-16 2.174494097073735e-14 12.569346884683407" Properties=species:S:1:pos:R:3 volume=83.44663063839009 potential_energy=-84.21235357156512 energy=-84.21235357156512 state=3 removed_atom="_JSON [-1]" pbc="T T T"
Co      -0.00000000       1.59853483       2.09489115
Co       0.00000000       0.00000000       6.28467344
Co       1.38437177       0.79926742      10.47445574
O        0.00000000      -0.00000000       3.03076108
O        1.38437177       0.79926742       1.15902121
O        1.38437177       0.79926742       7.22054338
O       -0.00000000       1.59853483       5.34880351
O       -0.00000000       1.59853483      11.41032567
O       -0.00000000       0.00000000       9.53858580
