12
Lattice="2.84289827 0.0 0.0 -1.4214491349999994 2.462022122194832 0.0 0.0 0.0 14.1456155" Properties=species:S:1:pos:R:3 volume=99.00910147495065 potential_energy=-84.21235357156512 energy=-84.21235357156512 state=3 converged=T pbc="T T T"
Li       0.00000000       0.00000000       0.00000000
Li       1.42144915       0.82067403       4.71520512
Li      -0.00000001       1.64134809       9.43041038
Co      -0.00000001       1.64134809       2.35760263
Co       0.00000000       0.00000000       7.07280775
Co       1.42144915       0.82067403      11.78801287
O        0.00000000       0.00000000       3.38910558
O        1.42144915       0.82067403       1.32609954
O        1.42144915       0.82067403       8.10431070
O       -0.00000001       1.64134809       6.04130480
O       -0.00000001       1.64134809      12.81951596
O        0.00000000       0.00000000      10.75650992
11
Lattice="2.8012477657769947 -1.80020728426216e-11 -1.580900915940301e-10 -1.400623882904087 2.425951727448282 1.5809171467350065e-10 -7.899547534958636e-10 4.561219734290937e-10 13.58661921808757" Properties=species:S:1:pos:R:3 volume=92.33047757598669 potential_energy=-97.31026454845872 energy=-97.31026454845872 state=1 converged=T pbc="T T T"
Li      -0.00000000       0.00000000       0.10193566
Li      -0.00000000       1.61730115       8.95581050
Co      -0.00000000       1.61730115       2.46108011
Co      -0.00000000       0.00000000       6.59666604
Co       1.40062388       0.80865058      11.32218269
O       -0.00000000       0.00000000       3.34061491
O        1.40062388       0.80865058       1.39604737
O        1.40062388       0.80865058       7.66169878
O       -0.00000000       1.61730115       5.71713124
O       -0.00000000       1.61730115      12.34353890
O       -0.00000000       0.00000000      10.30082647
10
Lattice="2.7892496559708198 -2.4767503646489923e-12 -9.576676980536012e-11 -1.3946248279875577 2.4155610595664974 9.577454738643048e-11 -5.097278858326545e-10 2.943653119796227e-10 13.143300967306203" Properties=species:S:1:pos:R:3 volume=88.55434211315189 potential_energy=-90.83814516081341 energy=-90.83814516081341 state=2 converged=T pbc="T T T"
Li      -0.00000000       1.61037404       8.74634221
Co      -0.00000000       1.61037404       2.19054963
Co      -0.00000000       0.00000000       6.35961166
Co       1.39462483       0.80518702      11.13724063
O       -0.00000000       0.00000000       3.12082269
O        1.39462483       0.80518702       1.26102982
O        1.39462483       0.80518702       7.42620793
O       -0.00000000       1.61037404       5.47434899
O       -0.00000000       1.61037404      12.02239476
O       -0.00000000       0.00000000      10.06989713
