56
Lattice="11.851568268844826 1.2537611650223637e-17 -5.948333153478782e-18 -8.389879160408074e-17 5.925784134422393 -5.6673643439515446e-15 -8.139849255860527e-17 -3.11877741699281e-16 8.378316817918186" Properties=species:S:1:pos:R:3 volume=588.4078095060195 potential_energy=-601.3613453877041 energy=-601.3613453877041 state=0 removed_atom="_JSON [-1]" pbc="T T T"
Mg      -0.00000000      -0.00000000       0.00000000
Mg       2.96289207       2.96289207       4.18915841
Mg      -0.00000000       2.96289207       6.28373761
Mg       2.96289207      -0.00000000       2.09457920
V        1.48144607      -0.00000000       5.23644803
V       -0.00000000       1.48144607       3.14186878
V        2.96289207       1.48144600       7.33102719
V        1.48144600       2.96289207       1.04728963
V        4.44433813       2.96289207       1.04728963
V        2.96289207       4.44433813       7.33102719
V       -0.00000000       4.44433807       3.14186878
V        4.44433807      -0.00000000       5.23644803
O        4.55372634      -0.00000000       3.21890752
O       -0.00000000       4.55372634       5.15940930
O        2.96289207       4.33494986       0.97025089
O        4.33494986       2.96289207       7.40806593
O        1.59083427       2.96289207       7.40806593
O        2.96289207       1.59083427       0.97025089
O       -0.00000000       1.37205779       5.15940930
O        1.37205779      -0.00000000       3.21890752
O        4.33494981      -0.00000000       7.25398847
O       -0.00000000       4.33494981       1.12432835
O        2.96289207       4.55372639       5.31348676
O        4.55372639       2.96289207       3.06483006
O        1.37205775       2.96289207       3.06483006
O        2.96289207       1.37205775       5.31348676
O       -0.00000000       1.59083432       1.12432835
O        1.59083432      -0.00000000       7.25398847
Mg       5.92578413      -0.00000000       0.00000000
Mg       8.88867620       2.96289207       4.18915841
Mg       5.92578413       2.96289207       6.28373761
Mg       8.88867620      -0.00000000       2.09457920
V        7.40723020      -0.00000000       5.23644803
V        5.92578413       1.48144607       3.14186878
V        8.88867620       1.48144600       7.33102719
V        7.40723014       2.96289207       1.04728963
V       10.37012227       2.96289207       1.04728963
V        8.88867620       4.44433813       7.33102719
V        5.92578413       4.44433807       3.14186878
V       10.37012220      -0.00000000       5.23644803
O       10.47951047      -0.00000000       3.21890752
O        5.92578413       4.55372634       5.15940930
O        8.88867620       4.33494986       0.97025089
O       10.26073400       2.96289207       7.40806593
O        7.51661841       2.96289207       7.40806593
O        8.88867620       1.59083427       0.97025089
O        5.92578413       1.37205779       5.15940930
O        7.29784193      -0.00000000       3.21890752
O       10.26073395      -0.00000000       7.25398847
O        5.92578413       4.33494981       1.12432835
O        8.88867620       4.55372639       5.31348676
O       10.47951052       2.96289207       3.06483006
O        7.29784188       2.96289207       3.06483006
O        8.88867620       1.37205775       5.31348676
O        5.92578413       1.59083432       1.12432835
O        7.51661845      -0.00000000       7.25398847
