55
Lattice="11.804742616125317 -3.9165173250251566e-17 5.664648027522074e-17 3.6925140624672897e-17 5.909935683667504 2.0444405366227705e-15 -1.8665526432652462e-16 1.2771006043718727e-15 8.351178201796074" Properties=species:S:1:pos:R:3 volume=582.6221989226126 potential_energy=-593.4626792540312 energy=-593.4626792540312 state=1 pbc="T T T"
Mg      -0.07002239      -0.00000000       0.03654409
Mg       2.95118565       2.95496784       4.15357171
Mg       0.00901006       2.95496784       6.26468465
Mg       2.95118565      -0.00000000       2.09399868
V        1.48105981      -0.00000000       5.24567111
V       -0.03696211       1.44327355       3.12149127
V        2.95118565       1.44527107       7.31638189
V        1.47381614       2.95496784       1.04455033
V        4.42855517       2.95496784       1.04455033
V        2.95118565       4.46466461       7.31638189
V       -0.03696211       4.46666214       3.12149127
V        4.42131149      -0.00000000       5.24567111
O        4.52211570      -0.00000000       3.22625328
O        0.01010329       4.54655306       5.14459599
O        2.95118565       4.32781205       0.96957641
O        4.29995212       2.95496784       7.38852941
O        1.60241919       2.95496784       7.38852941
O        2.95118565       1.58212364       0.96957641
O        0.01010329       1.36338262       5.14459599
O        1.38025561      -0.00000000       3.22625328
O        4.35066274      -0.00000000       7.26589642
O       -0.01403176       4.29627727       1.12158117
O        2.95118565       4.53376271       5.30159423
O        4.56184068       2.95496784       3.04975572
O        1.34053063       2.95496784       3.04975572
O        2.95118565       1.37617298       5.30159423
O       -0.01403176       1.61365841       1.12158117
O        1.55170857      -0.00000000       7.26589642
Mg       5.97239370      -0.00000000       0.03654409
Mg       8.85355696       2.95496784       4.15125711
Mg       5.89336125       2.95496784       6.26468465
V        7.40216305      -0.00000000       5.14998225
V        5.93933342       1.44327355       3.12149127
V        8.85355696       1.47067419       7.33770394
V        7.47066301       2.95496784       1.06038890
V       10.23645091       2.95496784       1.06038890
V        8.85355696       4.43926149       7.33770394
V        5.93933342       4.46666214       3.12149127
V       10.30495088      -0.00000000       5.14998225
O       10.48735016      -0.00000000       3.23266374
O        5.89226802       4.54655306       5.14459599
O        8.85355696       4.30060461       0.92003386
O       10.21908482       2.95496784       7.37101632
O        7.48802910       2.95496784       7.37101632
O        8.85355696       1.60933107       0.92003386
O        5.89226802       1.36338262       5.14459599
O        7.21976377      -0.00000000       3.23266374
O       10.21740475      -0.00000000       7.17691006
O        5.91640307       4.29627727       1.12158117
O        8.85355696       4.53032765       5.30814852
O       10.45295748       2.95496784       3.05597271
O        7.25415645       2.95496784       3.05597271
O        8.85355696       1.37960803       5.30814852
O        5.91640307       1.61365841       1.12158117
O        7.48970918      -0.00000000       7.17691006
