54
Lattice="11.748034939190445 -2.6135624844153958e-17 5.466523635474939e-17 -1.832220733349546e-16 5.874046384057754 6.821526601767518e-14 -7.780206370072894e-16 8.618480757799581e-14 8.328873978268142" Properties=species:S:1:pos:R:3 volume=574.7631178725086 potential_energy=-585.4722137744029 energy=-585.4722137744029 state=2 pbc="T T T"
Mg      -0.00000000      -0.00000000       0.04805844
Mg       2.93700873       2.93702319       4.11615804
Mg       0.00000000       2.93702319       6.24653649
V        1.50012293       0.00000000       5.15317141
V        0.00000000       1.38163386       3.08838657
V        2.93700873       1.43689372       7.33990970
V        1.55538181       2.93702319       1.07582116
V        4.31863566       2.93702319       1.07582116
V        2.93700873       4.43715267       7.33990970
V        0.00000000       4.49241252       3.08838657
V        4.37389454       0.00000000       5.15317141
O        4.52818474      -0.00000000       3.22841661
O        0.00000000       4.52358403       5.12260128
O        2.93700873       4.28286037       0.93579165
O        4.28746462       2.93702319       7.37047974
O        1.58655285       2.93702319       7.37047974
O        2.93700873       1.59118601       0.93579165
O        0.00000000       1.35046235       5.12260128
O        1.34583273      -0.00000000       3.22841661
O        4.31999172       0.00000000       7.18762108
O        0.00000000       4.25539732       1.12076344
O        2.93700873       4.49105663       5.30546066
O        4.55564875       2.93702319       3.04344342
O        1.31836872       2.93702319       3.04344342
O        2.93700873       1.38298976       5.30546066
O        0.00000000       1.61864907       1.12076344
O        1.55402575       0.00000000       7.18762108
Mg       5.87401747      -0.00000000       0.04805844
Mg       8.81102620       2.93702319       4.11615804
Mg       5.87401747       2.93702319       6.24653649
V        7.37414040       0.00000000       5.15317141
V        5.87401747       1.38163386       3.08838657
V        8.81102620       1.43689372       7.33990970
V        7.42939928       2.93702319       1.07582116
V       10.19265313       2.93702319       1.07582116
V        8.81102620       4.43715267       7.33990970
V        5.87401747       4.49241252       3.08838657
V       10.24791201       0.00000000       5.15317141
O       10.40220221      -0.00000000       3.22841661
O        5.87401747       4.52358403       5.12260128
O        8.81102620       4.28286037       0.93579165
O       10.16148209       2.93702319       7.37047974
O        7.46057032       2.93702319       7.37047974
O        8.81102620       1.59118601       0.93579165
O        5.87401747       1.35046235       5.12260128
O        7.21985020      -0.00000000       3.22841661
O       10.19400919       0.00000000       7.18762108
O        5.87401747       4.25539732       1.12076344
O        8.81102620       4.49105663       5.30546066
O       10.42966622       2.93702319       3.04344342
O        7.19238619       2.93702319       3.04344342
O        8.81102620       1.38298976       5.30546066
O        5.87401747       1.61864907       1.12076344
O        7.42804322       0.00000000       7.18762108
