53
Lattice="11.692700412483578 -6.506618527197222e-17 4.734669382089314e-16 6.721414340807859e-17 5.857343190665812 2.0912100627770886e-14 -8.789846388791781e-15 1.8248108766898258e-14 8.270693890898341" Properties=species:S:1:pos:R:3 volume=566.4445994109406 potential_energy=-577.2126764102753 energy=-577.2126764102753 state=3 pbc="T T T"
Mg       0.00000000      -0.00000000       0.02574785
Mg       2.98209996       2.92867160       4.12381772
Mg       0.00000000       2.92867160       6.21455818
V        1.50403915      -0.00000000       5.11376451
V        0.00000000       1.39585289       3.08239035
V        2.97589341       1.46629961       7.29335978
V        1.55128038       2.92867160       1.09375632
V        4.32700525       2.92867160       0.98000532
V        2.97589341       4.39104358       7.29335978
V        0.00000000       4.46149030       3.08239035
V        4.45779591      -0.00000000       5.10226246
O        4.49639895      -0.00000000       3.16092519
O        0.00000000       4.51147881       5.09848146
O        2.91954735       4.27303296       0.94887747
O        4.24031554       2.92867160       7.32379834
O        1.57600409       2.92867160       7.33424175
O        2.91954735       1.58431023       0.94887747
O        0.00000000       1.34586438       5.09848146
O        1.33484055      -0.00000000       3.20227827
O        4.29069043      -0.00000000       7.13534360
O        0.00000000       4.24680551       1.11939223
O        2.94448777       4.50997348       5.26579969
O        4.53554590       2.92867160       2.97409114
O        1.33380727       2.92867160       3.05955398
O        2.94448777       1.34736971       5.26579969
O        0.00000000       1.61053768       1.11939223
O        1.58595852      -0.00000000       7.14032160
Mg       5.84635021      -0.00000000       0.02375335
Mg       8.71060045       2.92867160       4.12381772
V        7.23490450      -0.00000000       5.10226246
V        5.84635021       1.38680726       3.11383165
V        8.71680700       1.46629961       7.29335978
V        7.36569516       2.92867160       0.98000532
V       10.14142003       2.92867160       1.09375632
V        8.71680700       4.39104358       7.29335978
V        5.84635021       4.47053594       3.11383165
V       10.18866126      -0.00000000       5.11376451
O       10.35785986      -0.00000000       3.20227827
O        5.84635021       4.51469639       5.05973410
O        8.77315306       4.27303296       0.94887747
O       10.11669633       2.92867160       7.33424175
O        7.45238488       2.92867160       7.32379834
O        8.77315306       1.58431023       0.94887747
O        5.84635021       1.34264680       5.05973410
O        7.19630146      -0.00000000       3.16092519
O       10.10674189      -0.00000000       7.14032160
O        5.84635021       4.25216891       1.11607718
O        8.74821265       4.50997348       5.26579969
O       10.35889314       2.92867160       3.05955398
O        7.15715451       2.92867160       2.97409114
O        8.74821265       1.34736971       5.26579969
O        5.84635021       1.60517428       1.11607718
O        7.40200999      -0.00000000       7.13534360
