52
Lattice="11.647469309366178 3.1937527731574165e-16 0.04560101205744103 -2.0807020535193968e-16 5.871735518558495 -5.088048784668095e-14 0.03230740304552696 -2.265628695958271e-14 8.197234261333486" Properties=species:S:1:pos:R:3 volume=560.6072440302057 potential_energy=-568.7783854244574 energy=-568.7783854244574 state=4 pbc="T T T"
Mg       0.04900311      -0.00000000      -0.00005527
Mg       0.10329149       2.93586776       6.11922150
V        1.60743174      -0.00000000       4.99196524
V        0.02619745       1.40020862       3.03746287
V        3.03491520       1.51419035       7.15605726
V        1.60538716       2.93586776       1.21244969
V        4.28335607       2.93586776       1.06715902
V        3.03491520       4.35754517       7.15605726
V        0.02619745       4.47152690       3.03746287
V        4.28053031      -0.00000000       5.00076369
O        4.51899516      -0.00000000       3.17227145
O        0.04773831       4.54382873       5.03548118
O        2.90705547       4.26599787       0.93866869
O        4.29322971       2.93586776       7.27492785
O        1.63283898       2.93586776       7.30054260
O        2.90705547       1.60573765       0.93866869
O        0.04773831       1.32790679       5.03548118
O        1.36581522      -0.00000000       3.12890217
O        4.28907216      -0.00000000       7.09974430
O        0.02525200       4.25443283       1.08867456
O        2.95926654       4.53827921       5.21048681
O        4.47985919       2.93586776       3.02454427
O        1.29471012       2.93586776       2.99753984
O        2.95926654       1.33345631       5.21048681
O        0.02525200       1.61730269       1.08867456
O        1.65211607      -0.00000000       7.04518704
Mg       5.81500756      -0.00000000       0.08101652
Mg       8.71532833       2.93586776       4.12244143
V        7.32903900      -0.00000000       4.99024718
V        5.73296538       1.54436448       3.25013569
V        8.71884786       1.46988243       7.29550847
V        7.30095119       2.93586776       0.97573021
V       10.12637964       2.93586776       1.07809979
V        8.71884786       4.40185309       7.29550847
V        5.73296538       4.32737104       3.25013569
V       10.19366326      -0.00000000       5.11804554
O       10.34456383      -0.00000000       3.19300040
O        5.82113629       4.57440607       5.06064639
O        8.72521589       4.27292403       1.00560788
O       10.12919628       2.93586776       7.26919967
O        7.45135561       2.93586776       7.26418062
O        8.72521589       1.59881148       1.00560788
O        5.82113629       1.29732945       5.06064639
O        7.11560200      -0.00000000       3.21516839
O       10.10358068      -0.00000000       7.13282347
O        5.80669655       4.24896960       1.17442788
O        8.74549807       4.52006651       5.25301275
O       10.33418401       2.93586776       3.05100687
O        7.12137976       2.93586776       3.03092094
O        8.74549807       1.35166901       5.25301275
O        5.80669655       1.62276592       1.17442788
O        7.41739116      -0.00000000       7.10383450
