51
Lattice="11.570095426996946 -3.9058631548003007e-16 -7.596243219287905e-10 -4.4175856261367453e-16 5.842741421557615 -1.2031860404546988e-13 -4.902489033686763e-10 -1.9830702549188412e-13 8.184474323233466" Properties=species:S:1:pos:R:3 volume=553.279269130071 potential_energy=-560.3688909786879 energy=-560.3688909786879 state=5 pbc="T T T"
Mg       0.00000001      -0.00000000      -0.00483149
Mg       0.00000001       2.92137071       6.10550624
V        1.54717977      -0.00000000       4.98657973
V        0.00000001       1.42824564       3.04225640
V        2.96829676       1.50636186       7.15532848
V        1.57888015       2.92137071       1.19287771
V        4.26891375       2.92137071       1.04741020
V        2.96829676       4.33637956       7.15532848
V        0.00000001       4.41449578       3.04225640
V        4.20207357      -0.00000000       4.91816746
O        4.50344538      -0.00000000       3.16361904
O        0.00000001       4.52993098       5.02078394
O        2.88498753       4.25438515       0.94128013
O        4.23679417       2.92137071       7.25282135
O        1.56435239       2.92137071       7.26733519
O        2.88498753       1.58835627       0.94128013
O        0.00000001       1.31281044       5.02078394
O        1.31969966      -0.00000000       3.12491794
O        4.22298883      -0.00000000       7.06591341
O        0.00000001       4.23198010       1.09962367
O        2.91292972       4.51811170       5.19611840
O        4.47943182       2.92137071       3.01131184
O        1.30391190       2.92137071       2.99708788
O        2.91292972       1.32462972       5.19611840
O        0.00000001       1.61076132       1.09962367
O        1.59076091      -0.00000000       7.03934127
Mg       5.78504772      -0.00000000       0.06178019
V        7.36802187      -0.00000000       4.91816746
V        5.78504772       1.58610362       3.26856789
V        8.60179869       1.50636186       7.15532848
V        7.30118169       2.92137071       1.04741020
V        9.99121530       2.92137071       1.19287771
V        8.60179869       4.33637956       7.15532848
V        5.78504772       4.25663780       3.26856789
V       10.02291567      -0.00000000       4.98657973
O       10.25039578      -0.00000000       3.12491794
O        5.78504772       4.56703546       5.02747806
O        8.68510792       4.25438515       0.94128013
O       10.00574305       2.92137071       7.26733519
O        7.33330128       2.92137071       7.25282135
O        8.68510792       1.58835627       0.94128013
O        5.78504772       1.27570597       5.02747806
O        7.06665007      -0.00000000       3.16361904
O        9.97933454      -0.00000000       7.03934127
O        5.78504772       4.22511442       1.16130278
O        8.65716572       4.51811170       5.19611840
O       10.26618355       2.92137071       2.99708788
O        7.09066363       2.92137071       3.01131184
O        8.65716572       1.32462972       5.19611840
O        5.78504772       1.61762700       1.16130278
O        7.34710662      -0.00000000       7.06591341
