50
Lattice="11.580960724601463 2.31099103515845e-14 3.130011623016853e-11 1.1512053350254322e-14 5.790514540916264 -1.8916341909728737e-13 -1.8738257421028612e-11 -3.0048210477924813e-13 8.107501142168134" Properties=species:S:1:pos:R:3 volume=543.686768440567 potential_energy=-551.7718778692672 energy=-551.7718778692672 state=6 pbc="T T T"
Mg      -0.00000001       0.00000000       0.00348000
V        1.57178199      -0.00000000       4.88952453
V       -0.00000001       1.57179355       3.22492046
V        2.89524017       1.52780331       7.09823617
V        1.52779494       2.89525727       1.01620639
V        4.26268540       2.89525727       1.01620639
V        2.89524017       4.26271123       7.09823617
V       -0.00000001       4.21872099       3.22492046
V        4.21869835       0.00000000       4.88952453
O        4.51254976      -0.00000000       3.12398932
O       -0.00000001       4.51257873       4.99045691
O        2.89524017       4.23442336       0.95059214
O        4.23440107       2.89525727       7.16385318
O        1.55607927       2.89525727       7.16385318
O        2.89524017       1.55609118       0.95059214
O       -0.00000001       1.27793582       4.99045691
O        1.27793058       0.00000000       3.12398932
O        4.19070258       0.00000000       6.98167449
O       -0.00000001       4.19072491       1.13277208
O        2.89524017       4.47641370       5.13328694
O        4.47638365       2.89525727       2.98115829
O        1.31409669       2.89525727       2.98115829
O        2.89524017       1.31410084       5.13328694
O       -0.00000001       1.59978963       1.13277208
O        1.59977776      -0.00000000       6.98167449
Mg       5.79048035      -0.00000000       0.00348000
V        7.36226236       0.00000000       4.88952453
V        5.79048035       1.57179355       3.22492046
V        8.68572053       1.52780331       7.09823617
V        7.31827530       2.89525727       1.01620639
V       10.05316576       2.89525727       1.01620639
V        8.68572053       4.26271123       7.09823617
V        5.79048035       4.21872099       3.22492046
V       10.00917871      -0.00000000       4.88952453
O       10.30303012       0.00000000       3.12398932
O        5.79048035       4.51257873       4.99045691
O        8.68572053       4.23442336       0.95059214
O       10.02488143       2.89525727       7.16385318
O        7.34655963       2.89525727       7.16385318
O        8.68572053       1.55609118       0.95059214
O        5.79048035       1.27793582       4.99045691
O        7.06841094      -0.00000000       3.12398932
O        9.98118294      -0.00000000       6.98167449
O        5.79048035       4.19072491       1.13277208
O        8.68572053       4.47641370       5.13328694
O       10.26686401       2.89525727       2.98115829
O        7.10457705       2.89525727       2.98115829
O        8.68572053       1.31410084       5.13328694
O        5.79048035       1.59978963       1.13277208
O        7.39025813       0.00000000       6.98167449
