49
Lattice="11.510765123345855 -0.018951136215528144 -8.796853588687523e-08 -0.009490293789239162 5.788700139939244 8.788802490814944e-08 -1.97070433553498e-07 8.391893079407941e-08 8.154304404409626" Properties=species:S:1:pos:R:3 volume=543.339142685139 potential_energy=-542.8641137006152 energy=-542.8641137006152 state=7 pbc="T T T"
Mg      -0.00000000      -0.00000019       0.05048679
V        1.52549520       0.09482821       4.96974789
V       -0.03314473       1.52858261       3.25435675
V        3.17318861       1.22515115       7.25812719
V        1.52497323       2.77826680       1.16208061
V        4.37823265       3.16165714       0.89611943
V        2.64461813       4.11074269       7.02891891
V        0.02365451       4.26011668       3.25435787
V        4.21628761      -0.04577374       4.87807146
O        4.46789162      -0.03336856       3.11340981
O        0.02346537       4.50593308       5.06346730
O        2.84786276       4.19033909       0.86236890
O        4.16317354       2.84596260       7.20885909
O        1.56394054       2.77490453       7.23994489
O        2.92011803       1.59630702       0.93513263
O       -0.03295612       1.28276710       5.06346703
O        1.29054003       0.03476489       3.16886726
O        4.19828563      -0.13332273       7.01775702
O        0.02198633       4.18962502       1.18077553
O        2.83429001       4.47246308       5.16393131
O        4.44971307       2.92896631       2.89581079
O        1.31922527       2.87659593       3.04115883
O        2.92146285       1.28744802       5.26998003
O       -0.03147660       1.59907482       1.18077530
O        1.60264272      -0.04931038       7.07368403
V        7.29447703       0.02682222       4.87807179
V        5.68610369       1.55579258       3.18823128
V        8.85665643       1.65900649       7.02891890
V        7.12304227       2.60809191       0.89611955
V        9.97630164       2.99148225       1.16208060
V        8.32808586       4.54459798       7.25812721
V        5.81517108       4.21395705       3.18823081
V        9.98526929      -0.11377831       4.96974748
O       10.22022483      -0.05371666       3.16886708
O        5.77130353       4.49078606       4.96506284
O        8.58115686       4.17344198       0.93513272
O        9.93733394       2.99484472       7.23994490
O        7.33810096       2.92378653       7.20885917
O        8.65341219       1.57940995       0.86236892
O        5.72997074       1.27896309       4.96506293
O        7.04287323       0.01441798       3.11340998
O        9.90812201       0.03035949       7.07368396
O        5.79851350       4.17352098       1.07610432
O        8.57981156       4.48230120       5.26998014
O       10.18204960       2.89315281       3.04115872
O        7.05156168       2.84078310       2.89581092
O        8.66698435       1.29728622       5.16393125
O        5.70276141       1.59622817       1.07610460
O        7.31247912       0.11437176       7.01775707
