48
Lattice="11.51767069782691 3.070038500789239e-18 1.3332088725908822e-18 1.8674737179039512e-16 5.758835348913596 1.8853996010518337e-14 3.134521831898014e-17 1.6004270038304825e-14 8.129043473227568" Properties=species:S:1:pos:R:3 volume=539.1861963432033 potential_energy=-533.7371920295424 energy=-533.7371920295424 state=8 removed_atom="_JSON [-1]" pbc="T T T"
V        1.30919612      -0.00000000       5.26034034
V        0.00000000       1.30919612       2.86870313
V        2.87941767       1.57022156       6.93322487
V        1.57022156       2.87941767       1.19581860
V        4.18861379       2.87941767       1.19581860
V        2.87941767       4.18861379       6.93322487
V       -0.00000000       4.44963923       2.86870313
V        4.44963923       0.00000000       5.26034034
O        4.46381228       0.00000000       3.16061103
O       -0.00000000       4.46381228       4.96843244
O        2.87941767       4.17444074       0.90391070
O        4.17444074       2.87941767       7.22513277
O        1.58439461       2.87941767       7.22513277
O        2.87941767       1.58439461       0.90391070
O        0.00000000       1.29502307       4.96843244
O        1.29502307      -0.00000000       3.16061103
O        4.15771411       0.00000000       7.02049689
O       -0.00000000       4.15771411       1.10854658
O        2.87941767       4.48053892       5.17306832
O        4.48053892       2.87941767       2.95597516
O        1.27829643       2.87941767       2.95597516
O        2.87941767       1.27829643       5.17306832
O        0.00000000       1.60112124       1.10854658
O        1.60112124      -0.00000000       7.02049689
V        7.06803147      -0.00000000       5.26034034
V        5.75883535       1.30919612       2.86870313
V        8.63825302       1.57022156       6.93322487
V        7.32905691       2.87941767       1.19581860
V        9.94744914       2.87941767       1.19581860
V        8.63825302       4.18861379       6.93322487
V        5.75883535       4.44963923       2.86870313
V       10.20847458       0.00000000       5.26034034
O       10.22264763       0.00000000       3.16061103
O        5.75883535       4.46381228       4.96843244
O        8.63825302       4.17444074       0.90391070
O        9.93327609       2.87941767       7.22513277
O        7.34322996       2.87941767       7.22513277
O        8.63825302       1.58439461       0.90391070
O        5.75883535       1.29502307       4.96843244
O        7.05385841      -0.00000000       3.16061103
O        9.91654946       0.00000000       7.02049689
O        5.75883535       4.15771411       1.10854658
O        8.63825302       4.48053892       5.17306832
O       10.23937426       2.87941767       2.95597516
O        7.03713178       2.87941767       2.95597516
O        8.63825302       1.27829643       5.17306832
O        5.75883535       1.60112124       1.10854658
O        7.35995659      -0.00000000       7.02049689
