24
Lattice="5.01022733 0.0 0.0 0.0 8.659992 0.0 -1.6950666315049552 0.0 4.799173775718849" Properties=species:S:1:pos:R:3 volume=208.22908860486115 potential_energy=-146.51102001731385 energy=-146.51102001731385 state=8 converged=T pbc="T T T"
Li       2.50511367       0.00000000       0.00000000
Li      -0.84753332       0.00000000       2.39958689
Li       1.65758035       7.26219135       2.39958689
Li       1.65758035       1.39780065       2.39958689
Li       0.00000000       4.32999600       0.00000000
Li       1.65758035       4.32999600       2.39958689
Li      -0.84753332       2.93219535       2.39958689
Li      -0.84753332       5.72779665       2.39958689
Mn       2.50511367       2.88479489       0.00000000
Mn       2.50511367       5.77519711       0.00000000
Mn       0.00000000       7.21479089       0.00000000
Mn       0.00000000       1.44520111       0.00000000
O        2.60374359       0.00000000       3.70751532
O        0.71141711       0.00000000       1.09165846
O       -0.08289960       1.54663127       3.72551702
O        3.39806030       1.54663127       1.07365676
O        3.39806030       7.11336073       1.07365676
O       -0.08289960       7.11336073       3.72551702
O        0.09862992       4.32999600       3.70751532
O        3.21653077       4.32999600       1.09165846
O        2.42221407       5.87662727       3.72551702
O        0.89294663       5.87662727       1.07365676
O        0.89294663       2.78336473       1.07365676
O        2.42221407       2.78336473       3.72551702
23
Lattice="4.84842811821076 6.426159928969832e-16 0.038575469086441834 8.291807599453885e-16 8.500480531597432 7.809685092885109e-15 -1.6037826094390106 2.4114618334318816e-14 4.660397448470643" Properties=species:S:1:pos:R:3 volume=192.5993715598607 potential_energy=-197.8816611245249 energy=-197.8816611245249 state=1 converged=T pbc="T T T"
Li       2.42421406       0.00000000       0.01928773
Li      -0.80189130       0.00000000       2.33019872
Li       1.62232275       7.06748141       2.34948646
Li       1.62232275       1.43299912       2.34948646
Li       0.00000000       4.25024027       0.00000000
Li      -0.80189130       2.94046918       2.33019872
Li      -0.80189130       5.56001135       2.33019872
Mn       2.42421406       2.85962868       0.01928773
Mn       2.42421406       5.64085185       0.01928773
Mn       0.00000000       7.08026370       0.00000000
Mn       0.00000000       1.42021683      -0.00000000
O        2.54380391       0.00000000       3.62904668
O        0.70084160       0.00000000       1.06992623
O       -0.03707657       1.52382734       3.61259008
O        3.28172208       1.52382734       1.08638284
O        3.28172208       6.97665320       1.08638284
O       -0.03707657       6.97665320       3.61259008
O        0.09886417       4.25024027       3.65925753
O        3.14578134       4.25024027       1.03971538
O        2.39871029       5.80084718       3.66777009
O        0.84593522       5.80084718       1.03120282
O        0.84593522       2.69963335       1.03120282
O        2.39871029       2.69963335       3.66777009
22
Lattice="4.809995590831663 -6.813092903200291e-16 0.09004615977847909 -3.111105917848133e-16 8.552180926427795 -1.4194408418041792e-14 -1.5418021325883493 -4.773932025335354e-15 4.658096447319456" Properties=species:S:1:pos:R:3 volume=192.80256244488095 potential_energy=-191.44348024532923 energy=-191.44348024532923 state=2 converged=T pbc="T T T"
Li       2.40499780       0.00000000       0.04502308
Li       1.63409673       7.18069370       2.37407130
Li       1.63409673       1.37148723       2.37407130
Li      -0.00000000       4.27609046      -0.00000000
Li      -0.77090107       2.90460395       2.32904822
Li      -0.77090107       5.64757698       2.32904822
Mn       2.40499780       2.87952914       0.04502308
Mn       2.40499780       5.67265179       0.04502308
Mn      -0.00000000       7.15561140      -0.00000000
Mn      -0.00000000       1.39656953      -0.00000000
O        2.55443584       0.00000000       3.71992793
O        0.71375762      -0.00000000       1.02821467
O        0.03087657       1.57423599       3.65332185
O        3.23731689       1.57423599       1.09482076
O        3.23731689       6.97794494       1.09482076
O        0.03087657       6.97794494       3.65332185
O        0.14943914       4.27609046       3.67490647
O        3.11875432       4.27609046       1.07323613
O        2.43587530       5.85032902       3.69834587
O        0.83231816       5.85032902       1.04979674
O        0.83231816       2.70185190       1.04979674
O        2.43587530       2.70185190       3.69834587
21
Lattice="4.771274523578436 3.200892171924237e-16 0.13329820951318996 7.64849468904346e-16 8.55063628857327 -1.650981917510398e-14 -1.4869022628927364 8.657085793401946e-15 4.616036561505553" Properties=species:S:1:pos:R:3 volume=190.0171908949339 potential_energy=-184.49895206350118 energy=-184.49895206350118 state=3 converged=T pbc="T T T"
Li       2.38563726       0.00000000       0.06664910
Li       1.64218613       7.20189873       2.37466739
Li       1.64218613       1.34873755       2.37466739
Li      -0.74345113       2.97239369       2.30801828
Li      -0.74345113       5.57824260       2.30801828
Mn       2.38563726       2.91459101       0.06664910
Mn       2.38563726       5.63604527       0.06664910
Mn      -0.00000000       7.13135041      -0.00000000
Mn      -0.00000000       1.41928588      -0.00000000
O        2.58548229       0.00000000       3.72351076
O        0.69888997       0.00000000       1.02582401
O        0.07194977       1.58738123       3.62089823
O        3.21242249       1.58738123       1.12843655
O        3.21242249       6.96325506       1.12843655
O        0.07194977       6.96325506       3.62089823
O        0.24797491       4.27531814       3.63194309
O        3.03639735       4.27531814       1.11739168
O        2.43605192       5.89296962       3.67981647
O        0.84832034       5.89296962       1.06951830
O        0.84832034       2.65766667       1.06951830
O        2.43605192       2.65766667       3.67981647
20
Lattice="4.7193544868260675 -3.311709353922735e-15 0.1807075671087397 -7.190009789253077e-15 8.591215200940848 5.2651072556150565e-14 -1.423392697944381 2.6681181681631836e-14 4.5559193214996" Properties=species:S:1:pos:R:3 volume=186.9295171014679 potential_energy=-177.4287658251502 energy=-177.4287658251502 state=4 converged=T pbc="T T T"
Li       1.64798089       7.30994095       2.36831344
Li       1.64798089       1.28127425       2.36831344
Li      -0.71169635       3.01433303       2.27795966
Li      -0.71169635       5.57688217       2.27795966
Mn       2.35967724       2.91545718       0.09035378
Mn       2.35967724       5.67575802       0.09035378
Mn       0.00000000       7.21107056       0.00000000
Mn      -0.00000000       1.38014464       0.00000000
O        2.65042827       0.00000000       3.69701447
O        0.64553352      -0.00000000       1.03961242
O        0.08802075       1.65306908       3.56007600
O        3.20794104       1.65306908       1.17655089
O        3.20794104       6.93814613       1.17655089
O        0.08802075       6.93814613       3.56007600
O        0.29074963       4.29560760       3.60665836
O        3.00521216       4.29560760       1.12996853
O        2.44769722       5.94867531       3.65042926
O        0.84826457       5.94867531       1.08619762
O        0.84826457       2.64253990       1.08619762
O        2.44769722       2.64253990       3.65042926
19
Lattice="4.723647293863183 8.732092330319251e-16 0.2542480984789901 4.0211829342618e-15 8.496901472804531 -7.363853819717294e-14 -1.3549007994048896 -1.7922548127883913e-14 4.588830616869226" Properties=species:S:1:pos:R:3 volume=187.10600424383136 potential_energy=-169.90072854772473 energy=-169.90072854772473 state=5 converged=T pbc="T T T"
Li       1.68437325       0.74784907       2.42153936
Li      -0.67745040       2.98966698       2.29441531
Li      -0.67745040       5.63901916       2.29441531
Mn       2.36182365       2.91254575       0.12712405
Mn       2.36182365       5.67782399       0.12712405
Mn      -0.00000000       7.15056144      -0.00000000
Mn      -0.00000000       1.39817362      -0.00000000
O        2.77203623       0.02232874       3.80391626
O        0.59671027       0.02232874       1.03916245
O        0.17643386       1.64882210       3.60769112
O        3.19231264       1.64882210       1.23538759
O        3.19051404       6.90351066       1.22085110
O        0.17823246       6.90351066       3.62222761
O        0.36066328       4.27622456       3.66895089
O        3.00808322       4.27622456       1.17412782
O        2.55429871       5.85133141       3.78351104
O        0.81444778       5.85133141       1.05956768
O        0.83894883       2.66117267       1.08956374
O        2.52979766       2.66117267       3.75351497
18
Lattice="4.743744966714223 1.0704933453487891e-14 0.8616576135641716 9.996800919547243e-15 8.35150344206454 -1.514123600048097e-13 -0.7593078370380466 2.4689145469623396e-14 4.170346782098497" Properties=species:S:1:pos:R:3 volume=170.6823895483876 potential_energy=-163.0191343679711 energy=-163.0191343679711 state=6 converged=T pbc="T T T"
Li       1.99221856       0.13793154       2.51600220
Li      -0.37965392       4.31368326       2.08517339
Mn       2.37187248       2.92184565       0.43082881
Mn       2.37187248       5.70552088       0.43082881
Mn      -0.00000000       7.09759737      -0.00000000
Mn      -0.00000000       1.52976916      -0.00000000
O        3.49648578       0.13793154       3.93234640
O        0.48795135       0.13793154       1.09965800
O        0.93728869       1.64001198       3.46716779
O        3.04714844       1.64001198       1.56483661
O        3.04714844       6.98735455       1.56483661
O        0.93728869       6.98735455       3.46716779
O        1.12461329       4.31368326       3.50151759
O        2.85982384       4.31368326       1.53048680
O        3.30916118       5.81576370       3.89799660
O        0.67527595       5.81576370       1.13400780
O        0.67527595       2.81160283       1.13400780
O        3.30916118       2.81160283       3.89799660
17
Lattice="4.7582033109379696 5.086812609945109e-14 0.8897860944552001 1.060738779949938e-13 8.375335912105278 -4.1579171307722875e-13 -0.7253790125382256 -5.882915473527148e-14 4.108453723043722" Properties=species:S:1:pos:R:3 volume=169.13396448755944 potential_energy=-154.7324014504957 energy=-154.7324014504957 state=7 converged=T pbc="T T T"
Li       2.01641215       0.13832515       2.49911991
Mn       2.37910166       2.92705720       0.44489305
Mn       2.37910166       5.72492902       0.44489305
Mn      -0.00000000       7.11905875      -0.00000000
Mn      -0.00000000       1.53292747       0.00000000
O        3.53759777       0.13832515       3.90656683
O        0.49522653       0.13832515       1.09167299
O        0.97885249       1.65884254       3.41542906
O        3.05397180       1.65884254       1.58281076
O        3.05397180       6.99314368       1.58281076
O        0.97885249       6.99314368       3.41542906
O        1.23335115       4.32599311       3.43272729
O        2.79947315       4.32599311       1.56551253
O        3.34466079       5.83916928       3.87677875
O        0.68816351       5.83916928       1.12146107
O        0.68816351       2.81281694       1.12146107
O        3.34466079       2.81281694       3.87677875
