32
Lattice="5.82746742 0.0 0.0 -2.913733709999998 5.04673482544616 0.0 0.0 0.0 10.559838" Properties=species:S:1:pos:R:3 volume=310.56148571075295 potential_energy=-224.63570412749056 energy=-224.63570412749056 state=8 converged=T pbc="T T T"
Na      -0.00000001       1.68224495       7.91987850
Na       1.45686687       0.84112246       2.63995950
Co       0.00000000       0.00000000       0.00000000
Co       0.00000000       0.00000000       5.27991900
O        1.45686687       0.84112246       9.56080341
O       -0.00000001       1.68224495       0.99903459
O       -0.00000001       1.68224495       4.28088441
O        1.45686687       0.84112246       6.27895359
Na      -1.45686687       4.20561236       7.91987850
Na       0.00000001       3.36448988       2.63995950
Co      -1.45686685       2.52336741       0.00000000
Co      -1.45686685       2.52336741       5.27991900
O        0.00000001       3.36448988       9.56080341
O       -1.45686687       4.20561236       0.99903459
O       -1.45686687       4.20561236       4.28088441
O        0.00000001       3.36448988       6.27895359
Na       2.91373370       1.68224495       7.91987850
Na       4.37060058       0.84112246       2.63995950
Co       2.91373371       0.00000000       0.00000000
Co       2.91373371       0.00000000       5.27991900
O        4.37060058       0.84112246       9.56080341
O        2.91373370       1.68224495       0.99903459
O        2.91373370       1.68224495       4.28088441
O        4.37060058       0.84112246       6.27895359
Na       1.45686684       4.20561236       7.91987850
Na       2.91373372       3.36448988       2.63995950
Co       1.45686686       2.52336741       0.00000000
Co       1.45686686       2.52336741       5.27991900
O        2.91373372       3.36448988       9.56080341
O        1.45686684       4.20561236       0.99903459
O        1.45686684       4.20561236       4.28088441
O        2.91373372       3.36448988       6.27895359
31
Lattice="5.73166948103558 1.901943748170864e-11 -4.513196214784199e-18 -2.8658347405013127 4.963771376682471 -3.177070899067358e-18 -8.041453563193164e-18 -1.046842338904329e-17 10.457062818281663" Properties=species:S:1:pos:R:3 volume=297.5107248182809 potential_energy=-274.3742986687087 energy=-274.3742986687087 state=1 converged=T pbc="T T T"
Na      -0.00231667       1.65325293       7.84279711
Na       1.43291737       0.82600475       2.61426570
Co      -0.00282323       0.00162999       0.00145575
Co      -0.00282323       0.00162999       5.22707566
O        1.43291737       0.82022604       9.45247856
O        0.01518747       1.66335895       0.94435782
O        0.01518747       1.66335895       4.28417359
O        1.43291737       0.82022604       6.23311566
Na      -1.43291737       4.13647615       7.84279711
Na      -0.00111759       3.30982616       2.61426570
Co      -1.43291737       2.47862570       0.00145575
Co      -1.43291737       2.47862570       5.22707566
O       -0.00612210       3.31271552       9.45247856
O       -1.43291737       4.13647615       0.97461255
O       -1.43291737       4.13647615       4.25391886
O       -0.00612210       3.31271552       6.23311566
Na       2.86815140       1.65325293       7.84279711
Co       2.86865797       0.00162999       0.00145575
Co       2.86865797       0.00162999       5.22707566
O        4.29875211       0.82729523       9.46109525
O        2.85064727       1.66335895       0.94435782
O        2.85064727       1.66335895       4.28417359
O        4.29875211       0.82729523       6.22449898
Na       1.43291737       4.13915120       7.84279711
Na       2.86695233       3.30982616       2.61426570
Co       1.43291737       2.48188569      -0.02442702
Co       1.43291737       2.48188569       5.25295843
O        2.87195684       3.31271552       9.45247856
O        1.43291737       4.11893917       0.94435782
O        1.43291737       4.11893917       4.28417359
O        2.87195684       3.31271552       6.23311566
30
Lattice="5.673209650023297 -7.855155117190853e-15 9.944374998221885e-18 -2.8366048250116664 4.913143677915353 -1.318870714420781e-16 1.788066659644522e-17 -2.615398197496423e-16 10.560752103963301" Properties=species:S:1:pos:R:3 volume=294.3629495802653 potential_energy=-268.40816956357787 energy=-268.40816956357787 state=2 converged=T pbc="T T T"
Na      -0.00324860       1.63583898       7.92056408
Na       1.41830241       0.81510610       2.64018803
Co       0.00000019      -0.00000011       0.00000090
Co       0.00000019      -0.00000011       5.28037515
O        1.41830241       0.82799507       9.59139277
O        0.00791355       1.64228345       0.96935845
O        0.00791355       1.64228345       4.31101760
O        1.41830241       0.82799507       6.24973538
Na      -0.00324862       3.27730471       2.64018803
Co      -1.41830241       2.45657205       0.00000090
Co      -1.41830241       2.45657205       5.28037515
O        0.00791356       3.27086022       9.59139277
O       -1.41830241       4.09428640       0.99014734
O       -1.41830241       4.09428640       4.29022871
O        0.00791356       3.27086022       6.24973538
Na       2.83985342       1.63583898       7.92056408
Co       2.83660464      -0.00000011       0.00000090
Co       2.83660464      -0.00000011       5.28037515
O        4.25490724       0.81885728       9.57060372
O        2.82869128       1.64228345       0.96935845
O        2.82869128       1.64228345       4.31101760
O        4.25490724       0.81885728       6.27052443
Na       1.41830241       4.09803755       7.92056408
Na       2.83985344       3.27730471       2.64018803
Co       1.41830241       2.45657184       0.00000091
Co       1.41830241       2.45657184       5.28037514
O        2.82869126       3.27086022       9.59139277
O        1.41830241       4.08514862       0.96935845
O        1.41830241       4.08514862       4.31101760
O        2.82869126       3.27086022       6.24973538
29
Lattice="5.620318966557048 0.02227646354451599 -1.5706056198498758e-16 -2.79086749994255 4.878477234182136 2.6154367932024273e-16 -2.8546201587727174e-16 -3.821793199058132e-17 10.708959852084122" Properties=species:S:1:pos:R:3 volume=294.2904496262986 potential_energy=-261.8072168432424 energy=-261.8072168432424 state=3 converged=T pbc="T T T"
Na      -0.00844615       1.63939398       8.03171989
Na       1.43184456       0.80323956       2.67723996
Co       0.00080939      -0.00046730      -0.03464946
Co       0.00080939      -0.00046730       5.38912939
O        1.41139127       0.83369032       9.70748620
O        0.01713890       1.61609093       0.92270272
O        0.01713890       1.61609093       4.43177720
O        1.41139127       0.83369032       6.35595358
Co      -1.39332402       2.44065723      -0.00626648
Co      -1.39332402       2.44065723       5.36074641
O        0.01472681       3.25866660       9.71611850
O       -1.40051946       4.07575942       0.94316644
O       -1.40051946       4.07575942       4.41131349
O        0.01472681       3.25866660       6.34732127
Na       2.81023855       1.64467715       8.03171989
Co       2.80998579       0.00860184      -0.00626648
Co       2.80998579       0.00860184       5.36074641
O        4.20958650       0.83676323       9.68678016
O        2.80924554       1.64525046       0.95156982
O        2.80924554       1.64525046       4.40291010
O        4.20958650       0.83676323       6.37665962
Na       1.40547156       4.08837129       8.03171989
Na       2.84974788       3.25912016       2.67723996
Co       1.41154519       2.45221314      -0.00778727
Co       1.41154519       2.45221314       5.36226720
O        2.81315010       3.26160784       9.70748620
O        1.43844512       4.07786551       0.92270272
O        1.43844512       4.07786551       4.43177720
O        2.81315010       3.26160784       6.35595358
28
Lattice="5.560261692020739 0.04670866425976919 -7.272175913061329e-17 -2.739679956184611 4.838682209109271 -5.973250418925002e-16 -1.0561611207642443e-16 3.200226794541906e-16 10.8902757180244" Properties=species:S:1:pos:R:3 volume=294.38926692368847 potential_energy=-255.3043742111671 energy=-255.3043742111671 state=4 converged=T pbc="T T T"
Na      -0.02818871       1.64473844       8.16770679
Na       1.43915364       0.79756783       2.72256893
Co       0.00033859      -0.00019548       0.00000058
Co       0.00033859      -0.00019548       5.44513727
O        1.38541900       0.82859168       9.93188920
O        0.02554569       1.61371473       0.95838677
O        0.02554569       1.61371473       4.48675109
O        1.38541900       0.82859168       6.40352438
Co      -1.36950327       2.41914792       0.00000057
Co      -1.36950327       2.41914792       5.44513729
O        0.02794081       3.24079561       9.91173835
O       -1.35665589       4.04019289       0.97853648
O       -1.35665589       4.04019289       4.46660138
O        0.02794081       3.24079561       6.42367523
Co       2.78046650       0.02315933       0.00000057
Co       2.78046650       0.02315933       5.44513729
O        4.17791144       0.84480895       9.91173768
O        2.79331513       1.64420601       0.97853716
O        2.79331513       1.64420601       4.46660070
O        4.17791144       0.84480895       6.42367590
Na       1.38210211       4.08743379       8.16770679
Na       2.84944455       3.24026335       2.72256893
Co       1.41062822       2.44250067      -0.00000020
Co       1.41062822       2.44250067       5.44513806
O        2.79570980       3.27128698       9.93188920
O        1.43583663       4.05641029       0.95838677
O        1.43583663       4.05641029       4.48675109
O        2.79570980       3.27128698       6.40352438
27
Lattice="5.554317786877758 0.02541723298050626 -1.0235527780288772e-16 -2.7551469239815196 4.8228889206195324 -6.409163808238444e-16 -1.5953506226010067e-16 2.0458299804979814e-15 11.216360148027421" Properties=species:S:1:pos:R:3 volume=301.24772137405773 potential_energy=-247.9889405435659 energy=-247.9889405435659 state=5 converged=T pbc="T T T"
Na      -0.05303045       1.64671919       8.41227011
Na       1.42585915       0.79288189       2.80409004
Co       0.00069493      -0.00194339      -0.04089139
Co       0.00069493      -0.00194339       5.64907147
O        1.37402179       0.82281020      10.18669249
O        0.02081169       1.60408642       0.90057037
O        0.02081169       1.60408642       4.70760970
O        1.37402179       0.82281020       6.63784773
Co      -1.37908757       2.41231863      -0.03650817
Co      -1.37908757       2.41231863       5.64468825
O        0.01693160       3.21359290      10.16881823
O       -1.35955113       4.03792485       0.89178984
O       -1.35955113       4.03792485       4.71639024
O        0.01693160       3.21359290       6.65572199
Co       2.77397468       0.01454702      -0.07434946
Co       2.77397468       0.01454702       5.68252954
O        4.17931593       0.82811067      10.16881823
O        2.77718215       1.60801370       0.89178984
O        2.77718215       1.60801370       4.71639024
O        4.17931593       0.82811067       6.65572199
Na       1.40685025       4.03606078       8.41227011
Co       1.40161592       2.42452294      -0.04089139
Co       1.40161592       2.42452294       5.64907147
O        2.78704266       3.23920632      10.19941975
O        1.39984221       4.04010687       0.86802334
O        1.39984221       4.04010687       4.74015673
O        2.78704266       3.23920632       6.62512047
26
Lattice="5.546815562954422 0.001233150519027764 -2.824707604159585e-16 -2.772339841798674 4.804299762886283 -1.9463486852669916e-15 -4.989743836458758e-16 2.728904130828105e-15 11.581806740135852" Properties=species:S:1:pos:R:3 volume=308.67812105180843 potential_energy=-240.75268583892785 energy=-240.75268583892785 state=6 converged=T pbc="T T T"
Na      -0.03911226       1.62442578       8.68635506
Na       1.42381830       0.77980242       2.89545169
Co      -0.00250149      -0.00141026      -0.00000008
Co      -0.00250149      -0.00141026       5.79090345
O        1.36635344       0.81297978      10.60777771
O        0.01835252       1.59124847       0.97402929
O        0.01835252       1.59124847       4.81687408
O        1.36635344       0.81297978       6.76493240
Co      -1.38733744       2.40282395       0.03870305
Co      -1.38733744       2.40282395       5.75220032
O       -0.01170090       3.17877001      10.61999235
O       -1.37593289       4.02975793       0.96181406
O       -1.37593289       4.02975793       4.82908931
O       -0.01170090       3.17877001       6.75271776
Co       2.77204254       0.00140480      -0.03870276
Co       2.77204254       0.00140480       5.82960613
O        4.17530739       0.82474787      10.61999235
O        2.75621423       1.58071347       0.96181406
O        2.75621423       1.58071347       4.82908931
O        4.17530739       0.82474787       6.75271776
Co       1.38720844       2.40563793      -0.00000008
Co       1.38720844       2.40563793       5.79090345
O        2.78441998       3.19794729      10.65217202
O        1.37476170       4.01181387       0.92963500
O        1.37476170       4.01181387       4.86126837
O        2.78441998       3.19794729       6.72053809
25
Lattice="5.563158013940885 3.5363690708417606e-11 -1.3562415362344684e-15 -2.7815790069375748 4.817836165358766 -5.296175291014249e-16 -2.681553882804958e-15 6.1761271365420986e-15 12.750829965929023" Properties=species:S:1:pos:R:3 volume=341.7526394496009 potential_energy=-232.6775401001205 energy=-232.6775401001205 state=7 converged=T pbc="T T T"
Na       1.39105247       0.80282087       3.18770749
Co      -0.00081435      -0.00077327       0.25735933
Co      -0.00081435      -0.00077327       6.11805565
O        1.39105250       0.80282085      12.09329745
O        0.01897890       1.59498791       1.25227420
O        0.01897890       1.59498791       5.12314079
O        1.39105250       0.80282085       7.03294750
Co      -1.39052605       2.40876598       0.30145215
Co      -1.39052605       2.40876598       6.07396283
O       -0.01160143       3.20488905      12.10644589
O       -1.39052655       4.03632291       1.25227455
O       -1.39052655       4.03632291       5.12314043
O       -0.01160143       3.20488905       7.01979906
Co       2.78291931      -0.00077383       0.25735904
Co       2.78291931      -0.00077383       6.11805595
O        4.17263146       0.81652069      12.10644589
O        2.76312606       1.59498794       1.25227455
O        2.76312606       1.59498794       5.12314043
O        4.17263146       0.81652069       7.01979906
Co       1.39105200       2.41000996       0.25735933
Co       1.39105200       2.41000996       6.11805565
O        2.79370641       3.20488902      12.10644550
O        1.39105250       4.01471163       1.21795983
O        1.39105250       4.01471163       5.15745515
O        2.79370641       3.20488902       7.01979945
