24
Lattice="5.68579654 0.0 0.0 -1.4214491349999991 2.4620221221948317 0.0 0.0 0.0 14.1456155" Properties=species:S:1:pos:R:3 volume=198.01820294990134 potential_energy=-168.42508305363802 energy=-168.42508305363802 state=6 converged=T pbc="T T T"
Li       0.00000000       0.00000000       0.00000000
Li       1.42144915       0.82067403       4.71520512
Li      -0.00000001       1.64134809       9.43041038
Co      -0.00000001       1.64134809       2.35760263
Co       0.00000000       0.00000000       7.07280775
Co       1.42144915       0.82067403      11.78801287
O        0.00000000       0.00000000       3.38910558
O        1.42144915       0.82067403       1.32609954
O        1.42144915       0.82067403       8.10431070
O       -0.00000001       1.64134809       6.04130480
O       -0.00000001       1.64134809      12.81951596
O        0.00000000       0.00000000      10.75650992
Li       2.84289827       0.00000000       0.00000000
Li       4.26434742       0.82067403       4.71520512
Li       2.84289826       1.64134809       9.43041038
Co       2.84289826       1.64134809       2.35760263
Co       2.84289827       0.00000000       7.07280775
Co       4.26434742       0.82067403      11.78801287
O        2.84289827       0.00000000       3.38910558
O        4.26434742       0.82067403       1.32609954
O        4.26434742       0.82067403       8.10431070
O        2.84289826       1.64134809       6.04130480
O        2.84289826       1.64134809      12.81951596
O        2.84289827       0.00000000      10.75650992
23
Lattice="5.592686085054636 -0.00522487889649465 0.0004202535312514975 -1.4004339601917968 2.4256227716957066 -1.079443303691405e-10 0.0010444515067283369 0.0006030137446856913 14.05311524079303" Properties=species:S:1:pos:R:3 volume=190.5381725848583 potential_energy=-201.14713060126013 energy=-201.14713060126013 state=1 converged=T pbc="T T T"
Li       1.39574582       0.80583422       4.67435796
Li      -0.00366174       1.61496774       9.37710400
Co      -0.00330408       1.61517424       2.31578207
Co       0.00052223       0.00030151       7.02655762
Co       1.39474375       0.80525568      11.69142751
O        0.01352362       0.00780786       3.37432651
O        1.42821566       0.82458070       1.36498133
O        1.39810664       0.80719724       8.04776784
O       -0.00235393       1.61572280       6.00533007
O        0.02641100       1.63233025      12.64173014
O       -0.01247916      -0.00720485      10.67878874
Li       2.79634304      -0.00261244       0.00021013
Li       4.19695832       0.80603317       4.67643150
Li       2.79755076       1.61516668       9.37917754
Co       2.79855283       1.61574523       2.36210799
Co       2.79686527      -0.00231093       7.02676775
Co       4.19660065       0.80582667      11.73775343
O        2.78662234      -0.00822469       3.38907360
O        4.16688557       0.78867066       1.41180535
O        4.19565051       0.80527810       8.04820543
O        2.79518994       1.61380366       6.00576765
O        2.76508091       1.59642021      12.68855416
O        2.80710819       0.00360282      10.66446189
22
Lattice="5.5731549555540285 -0.009195997314960033 -0.018406506096168392 -1.3972707225321976 2.420143883354421 -5.565479838009747e-12 -0.04604704151234714 -0.02658527183091442 14.124343705351173" Properties=species:S:1:pos:R:3 volume=190.3226210163049 potential_energy=-195.07244594377178 energy=-195.07244594377178 state=2 converged=T pbc="T T T"
Li       1.37179819       0.79200805       4.70003382
Co      -0.02912346       1.59661482       2.32671547
Co      -0.00396214      -0.00228754       7.08570692
Co       1.35033430       0.77961587      11.70642213
O       -0.00640618      -0.00369861       3.38854097
O        1.39340214       0.80448110       1.36884614
O        1.41665316       0.81790508       7.98659163
O       -0.02667580       1.59802798       6.02385342
O        0.00567920       1.61670815      12.69976037
O       -0.08483927      -0.04898198      10.83698994
Li       2.75534383      -0.02263076      -0.00868509
Li       4.16827671       0.79312642       4.69396036
Li       2.78470777       1.60775178       9.40267958
Co       2.76237427       1.59485753       2.36426606
Co       2.77770340      -0.00972145       7.02974907
Co       4.14366058       0.77891429      11.81191083
O        2.75506540      -0.02279151       3.39438794
O        4.12342049       0.76722868       1.40739536
O        4.14666956       0.78065153       8.02513993
O        2.78500834       1.60792531       5.99960052
O        2.70071353       1.55925768      12.76283044
O        2.79328139      -0.00072750      10.75551323
21
Lattice="5.547128816425198 -0.015228501558464159 -0.01843736994184737 -1.39337633871163 2.413398612713092 -1.7683370007303716e-12 -0.045574740581428665 -0.026312588738930467 14.22833624619318" Properties=species:S:1:pos:R:3 volume=190.17628260744448 potential_energy=-188.91366099327857 energy=-188.91366099327857 state=3 converged=T pbc="T T T"
Co      -0.01295677       1.60145181       2.36777301
Co       0.01431267       0.00826343       7.17037276
Co       1.31148841       0.75718819      11.79395512
O       -0.01850650      -0.01068473       3.36676288
O        1.38605538       0.80023944       1.36896300
O        1.44186967       0.83246384       8.04491202
O       -0.03996896       1.58585632       6.17232857
O       -0.02762334       1.59298406      12.79201363
O       -0.11611741      -0.06704042      10.91953561
Li       2.70625686      -0.04647428      -0.01144988
Li       4.21118991       0.82239922       4.72926081
Li       2.73988737       1.58187471       9.47296285
Co       2.76052309       1.59378875       2.35888432
Co       2.78166283      -0.00293862       7.04744071
Co       4.09119323       0.75311911      11.89859842
O        2.78417641      -0.00148741       3.32159835
O        4.13013608       0.77560277       1.39593807
O        4.12668698       0.77361143       8.10812878
O        2.82385269       1.63035211       6.09176187
O        2.65560459       1.53321403      12.85421195
O        2.74625857      -0.02337928      10.83780761
20
Lattice="5.551304057047442 -0.01080166366604952 -0.02412332411255222 -1.3925032718305406 2.4118864165167406 -1.2938336524944177e-12 -0.062244235028347215 -0.035936725842694806 13.68553102928751" Properties=species:S:1:pos:R:3 volume=183.02646911488503 potential_energy=-182.22895245805097 energy=-182.22895245805097 state=4 converged=T pbc="T T T"
Co       0.00956210       1.61344496       2.09785905
Co      -0.02429211      -0.01402506       6.89928935
Co       1.31846885       0.76121835      11.57515371
O       -0.01849894      -0.01068037       3.09728801
O        1.37401513       0.79328800       1.16602633
O        1.40653401       0.81206279       7.77243565
O       -0.07741483       1.56322881       5.90061227
O       -0.04598515       1.58137474      12.50700255
O       -0.10131241      -0.05849275      10.64288185
Li       4.17444019       0.80218989       4.43038498
Li       2.70548738       1.56201387       9.21856480
Co       2.78150926       1.60590512       2.02196374
Co       2.74591113      -0.02257175       6.77375776
Co       4.09780211       0.75794287      11.62700498
O        2.82182006       0.02125429       3.03018978
O        4.18573651       0.80871182       1.13420725
O        4.09177717       0.75446437       7.83243968
O        2.78863969       1.61002187       5.81647724
O        2.69356116       1.55512826      12.51474145
O        2.73905294      -0.02653132      10.57574976
19
Lattice="5.547976145580523 -0.006500205124433203 -0.006518170839545837 -1.3898087077786454 2.4072192946745505 -1.2275443669894223e-12 -0.02023697349881401 -0.011683822090670598 13.127555830450152" Properties=species:S:1:pos:R:3 volume=175.20205266803066 potential_energy=-175.38329414678452 energy=-175.38329414678452 state=5 converged=T pbc="T T T"
Co      -0.00258726       1.60331911       2.19225955
Co      -0.00169892      -0.00098087       6.38732004
Co       1.36479180       0.78796291      11.12476096
O        0.00161018       0.00092964       3.12573147
O        1.38303534       0.79849583       1.25878565
O        1.41484203       0.81685943       7.32762080
O       -0.02462672       1.59059462       5.45552518
O       -0.00208628       1.60360835      12.05655473
O       -0.05175505      -0.02988079      10.18445485
Li       2.76059746       1.59383169       8.75277884
Co       2.77141038       1.60007453       2.18899767
Co       2.76881961      -0.00623411       6.31971854
Co       4.14224885       0.78671563      11.18583673
O        2.77434259      -0.00304542       3.12402008
O        4.15828217       0.79597247       1.25397732
O        4.12310451       0.77566264       7.37865209
O        2.78465189       1.60771952       5.43368663
O        2.73661645       1.57998625      12.07187022
O        2.78795433       0.00481332      10.12690780
