64
Lattice="6.4982 0.0 0.0 0.0 10.838002 0.0 0.0 0.0 13.041204" Properties=species:S:1:pos:R:3 volume=918.4594546525897 potential_energy=-545.0675274722248 energy=-545.0675274722248 state=8 converged=T pbc="T T T"
K        1.45848850       8.68042675       8.10698622
K        4.70758850       3.26142575      11.45481978
K        1.79061150       8.68042675       1.58638422
K        5.03971150       3.26142575       4.93421778
K        4.55830535       0.65039934       1.34653040
K        1.93989465       6.06940034      11.69467360
K        5.18899465       0.65039934       7.86713240
K        1.30920535       6.06940034       5.17407160
V        3.21465954       0.03417222       5.01389954
V        3.28354046       5.45317322       8.02730446
V        0.03444046       0.03417222      11.53450154
V        6.46375954       5.45317322       1.50670246
V        1.62152834       2.73272634       3.21678250
V        4.87667166       8.15172734       9.82442150
V        1.62757166       2.73272634       9.73738450
V        4.87062834       8.15172734       3.30381950
P        2.16996342       2.75460826       6.50444395
P        4.32823658       8.17360926       6.53676005
P        1.07913658       2.75460826      13.02504595
P        5.41906342       8.17360926       0.01615805
P        3.23366677       5.46440139       2.35328526
P        3.26453323       0.04540039      10.68791874
P        0.01543322       5.46440139       8.87388726
P        6.48276677       0.04540039       4.16731674
O        3.15416130       1.56078067       6.30754785
O        3.34403870       6.97978167       6.73365615
O        0.09493870       1.56078067      12.82814985
O        6.40326130       6.97978167       0.21305415
O        3.07225149       4.01619505       6.65343970
O        3.42594851       9.43519605       6.38776430
O        0.17684851       4.01619505       0.13283770
O        6.32135149       9.43519605      12.90836630
O        1.27828691       2.95700795       5.24792394
O        5.21991309       8.37600895       7.79328006
O        1.97081309       2.95700795      11.76852594
O        4.52738691       8.37600895       1.27267806
O        1.28571436       2.51089411       7.74837919
O        5.21248564       7.92989511       5.29282481
O        1.96338564       2.51089411       1.22777719
O        4.53481436       7.92989511      11.81342681
O        2.00378495       5.74724073       1.44958199
O        4.49441505       0.32823973      11.59162201
O        1.24531505       5.74724073       7.97018399
O        5.25288495       0.32823973       5.07102001
O        4.46001358       5.18233155       1.46297531
O        2.03818642      10.60133255      11.57822869
O        5.28728642       5.18233155       7.98357731
O        1.21091358      10.60133255       5.05762669
O        3.46614638       6.71213721       3.27241628
O        3.03205362       1.29313621       9.76878772
O        6.28115362       6.71213721       9.79301828
O        0.21704638       1.29313621       3.24818572
O        2.94901312       4.25706964       3.30294574
O        3.54918688       9.67607064       9.73825826
O        0.30008688       4.25706964       9.82354774
O        6.19811312       9.67607064       3.21765626
F        3.40260698       9.54837730       3.50814908
F        3.09559302       4.12937630       9.53305492
F        6.34469302       9.54837730      10.02875108
F        0.15350698       4.12937630       3.01245292
F        3.11935044       1.40824663       3.51717360
F        3.37884956       6.82724763       9.52403040
F        0.12974956       1.40824663      10.03777560
F        6.36845044       6.82724763       3.00342840
63
Lattice="6.3076040464095 0.010676703733104755 0.018036718376391488 0.017993881340568035 10.616797850901516 -0.000717462545908658 0.03628020352851138 -0.0008088254732045993 12.761531372491566" Properties=species:S:1:pos:R:3 volume=854.5864158761049 potential_energy=-614.0155046170768 energy=-614.0155046170768 state=1 converged=T pbc="T T T"
K        1.50319299       8.37680529       8.07648689
K        4.22312378       4.78142469      11.49063268
K        1.77845180       8.41041814       1.44415253
K        4.89307893       3.13749114       4.80854365
K        4.32338603       0.70845521       1.28436359
K        5.12852193       0.64180093       7.77255807
K        1.22308341       5.90630747       5.05309798
V        3.13781717       0.00671229       4.96824172
V        3.24603027       5.30082419       7.80875750
V        0.05880812       0.02758160      11.34131906
V        6.35917377       5.33546954       1.40001680
V        1.60205442       2.68004729       3.16248209
V        4.76086508       7.97343245       9.60859915
V        1.61435997       2.67683255       9.58127025
V        4.77544623       7.99132839       3.21388019
P        2.07134505       2.67248668       6.39158387
P        4.29838821       7.98254963       6.38499356
P        1.12425774       2.66778293      12.75975125
P        5.23312634       7.98648667      -0.00264312
P        3.19038643       5.34631957       2.36175443
P        3.19284295       0.03729821      10.42948851
P        0.04853332       5.30354430       8.72184223
P        6.31108163       0.04703949       4.03745807
O        3.03957772       1.48678049       6.22937591
O        3.34312735       6.78639355       6.54681064
O        0.21864254       1.42984355      12.63084514
O        6.16883774       6.77635910       0.14715708
O        2.95853759       3.93374732       6.49645181
O        3.39581989       9.22885240       6.26286744
O        0.15206225       3.88222898       0.15285487
O        6.15503255       9.23700716      12.63032319
O        1.20498554       2.84449326       5.13806826
O        5.16981676       8.16418082       7.63175397
O        2.00199974       2.84109393      11.52512938
O        4.37903242       8.17103585       1.25644564
O        1.19490218       2.48774688       7.61931287
O        5.17962170       7.80049343       5.15193086
O        1.97838509       2.51322119       1.23759402
O        4.37928163       7.79097025      11.53931070
O        1.99747005       5.60681314       1.43710844
O        4.40786187       0.30155543      11.32078145
O        1.27046115       5.61942135       7.85338322
O        5.10770348       0.31451579       4.95085248
O        4.42266190       5.07249686       1.50852102
O        1.99844080      10.35540159      11.30992944
O        5.16583864       5.03238456       7.80949692
O        1.24080186      10.37066164       4.89229691
O        3.41559593       6.57620832       3.26544125
O        2.92057784       1.23578634       9.50508338
O        6.03953894       6.52437849       9.64043030
O        0.23417240       1.27453237       3.12770783
O        2.88745466       4.15985128       3.29624796
O        3.50911644       9.46366230       9.48958535
O        0.31083512       4.10958694       9.64665329
O        6.03780797       9.48531219       3.09144964
F        3.34044261       9.32839091       3.47072923
F        3.05775561       3.96460187       9.23983131
F        6.17518373       9.34259813       9.88090179
F        0.20792426       4.06138323       2.91847584
F        3.05265040       1.39144167       3.52178243
F        3.34954173       6.64825444       9.26094003
F        0.19952412       1.35535692       9.89968705
F        6.24673937       6.72646210       2.84383005
62
Lattice="6.2576666464670065 -5.193199250691364e-05 -0.00024261422950277553 -0.000312460990407156 10.590732495751773 0.0009201368578257836 -0.0011048201744566944 0.0011687676462884232 12.748220898465602" Properties=species:S:1:pos:R:3 volume=844.8663204713356 potential_energy=-604.7543977464636 energy=-604.7543977464636 state=2 converged=T pbc="T T T"
K        1.40520235       8.32470338       7.91828760
K        4.12068116       4.76711633      11.45157436
K        1.72462792       8.32376335       1.54471855
K        5.26632655       4.76614250       5.07761175
K        4.28093962       0.79930474       1.29352752
K        5.10698859       0.79906065       7.66800878
V        3.09758460      -0.01000670       4.95962809
V        3.11999635       5.26467175       7.74620255
V        0.03261125      -0.00960936      11.33403237
V        6.26727246       5.26384272       1.37214360
V        1.56490026       2.65115686       3.19061389
V        4.66367947       7.93042347       9.57214799
V        1.56498374       2.65174925       9.56471457
V        4.72365134       7.92982145       3.19804972
P        2.04319354       2.64022029       6.36673297
P        4.22081633       7.93245242       6.35657256
P        1.08610732       2.64102612      12.74090261
P        5.16689954       7.93185491      -0.01754098
P        3.14582877       5.26557162       2.37143209
P        3.14212765       0.01421645      10.38025780
P       -0.01615661       5.26630733       8.74560654
P        6.24567596       0.01366130       4.00597507
O        2.95055409       1.40356864       6.22468549
O        3.29599253       6.70972947       6.51251316
O        0.17938861       1.40385232      12.59895743
O        6.09134611       6.70885024       0.13846858
O        2.98594163       3.85842752       6.50223280
O        3.31232610       9.16965243       6.22538353
O        0.14385071       3.85753958       0.12822924
O        6.07469221       9.16992908      12.59947070
O        1.16362654       2.81435122       5.13373439
O        5.07111454       8.12358259       7.61412225
O        1.96573349       2.81536270      11.50798288
O        4.31645848       8.12314684       1.23986813
O        1.17243887       2.49162779       7.61082400
O        5.10344339       7.74575028       5.13176956
O        1.95792077       2.49153402       1.23685227
O        4.28337183       7.74646756      11.50569569
O        1.93341519       5.54688086       1.47771815
O        4.35590895       0.24892049      11.28498532
O        1.19616241       5.54773909       7.85176502
O        5.03196135       0.24851427       4.91075207
O        4.35107374       5.00874698       1.45460557
O        1.92923671      10.32558432      11.27332944
O        5.03617787       5.00963378       7.82858612
O        1.20034049      10.32519661       4.89920318
O        3.43627508       6.48437351       3.26187139
O        2.89026181       1.22860054       9.47620738
O        5.95104539       6.48483466       9.63609780
O        0.23979056       1.22786624       3.10182671
O        2.89643527       4.06284720       3.28450528
O        3.41146080       9.41380082       9.44280217
O        0.23332154       4.06331737       9.65829409
O        5.97580242       9.41302788       3.06877236
F        3.29400254       9.27254675       3.48597633
F        2.97266349       3.96706318       9.21389417
F        6.09336027       9.27310037       9.85999630
F        0.15700084       3.96630772       2.84002954
F        2.96108336       1.31336408       3.51318479
F        3.24997202       6.61450770       9.19751212
F        0.16900722       1.31384696       9.88759572
F        6.13726006       6.61377943       2.82348062
61
Lattice="6.199289545165182 0.01702313264290844 -0.028053253843970706 0.02887089219706551 10.561312436968164 0.004692083994875976 -0.05807912238546269 0.00563591426192291 12.723877591555524" Properties=species:S:1:pos:R:3 volume=833.0421435174212 potential_energy=-595.2293278605707 energy=-595.2293278605707 state=3 converged=T pbc="T T T"
K        0.93168086       9.98544211       7.61243046
K        3.99543465       4.76482678      11.39093232
K        1.74728506       8.28425896       1.55373135
K        5.24715264       4.68893305       5.10177041
K        4.24440708       0.74293808       1.25857273
V        3.17024533       0.01541241       5.00212153
V        3.00588007       5.29024413       7.71949413
V       -0.01558761      -0.03070708      11.30265829
V        6.23606578       5.24773584       1.32959897
V        1.58426698       2.61150292       3.16165470
V        4.58498542       7.88596916       9.53914963
V        1.47704414       2.60417486       9.50197701
V        4.72199008       7.89091577       3.21421436
P        2.02707684       2.63545899       6.33584528
P        4.15386144       7.90071496       6.37249114
P        1.03803503       2.61937690      12.68488924
P        5.14019733       7.92224823      -0.01903318
P        3.14925357       5.23587827       2.36526379
P        3.04838003      -0.02359909      10.32296921
P       -0.08178294       5.23467489       8.75801167
P        6.24569876       0.00192968       3.95908648
O        2.95338129       1.40337334       6.21084828
O        3.22118728       6.67491274       6.50060723
O        0.11069717       1.39646944      12.54625416
O        6.08094277       6.71002401       0.12703294
O        2.92068680       3.88154617       6.47106851
O        3.26035785       9.14552384       6.22639476
O        0.17161526       3.84604352       0.10039911
O        5.97390599       9.18229569      12.57801007
O        1.16532989       2.78118493       5.08761563
O        5.01594130       8.04916130       7.62133855
O        1.90612505       2.77659989      11.44146052
O        4.31027643       8.10212618       1.25193248
O        1.14757523       2.45159885       7.56487878
O        5.03521413       7.71082110       5.14390791
O        1.97146000       2.45575384       1.19941507
O        4.19333883       7.73909870      11.48918170
O        1.93849828       5.50725072       1.46500614
O        4.26887785       0.25402482      11.19890841
O        1.12647543       5.50260155       7.85626697
O        5.04870070       0.21779109       4.89703883
O        4.34526003       5.00322673       1.42669074
O        1.88708453      10.27929899      11.27363935
O        4.90920839       5.01564360       7.81608073
O        1.29867363      10.31607440       4.87574202
O        3.42381549       6.45241588       3.25602421
O        2.72522612       1.16268391       9.40922951
O        5.82299653       6.42181577       9.67181755
O        0.25712799       1.18384301       3.05876918
O        2.91946732       4.02254053       3.26189110
O        3.30716246       9.32196097       9.42547563
O        0.17021618       3.99558749       9.62987390
O        6.00655256       9.34401170       3.07009475
F        3.33378137       9.26538084       3.51320001
F        2.86108083       3.93572544       9.15509365
F        6.01624140       9.18638048       9.88097515
F        0.17658236       3.92221161       2.81190280
F        3.00203188       1.30147631       3.51854475
F        3.19041029       6.55369945       9.20474240
F        0.12109529       1.23748576       9.82369169
F        6.11682177       6.56803910       2.80909993
60
Lattice="6.146964392785414 0.00014727279761978578 0.00025638579483550235 -0.00032242960561206055 10.529036044533965 6.0233335995870846e-05 0.0006386192338324131 3.536475521736254e-05 12.681485214395115" Properties=species:S:1:pos:R:3 volume=820.766134770881 potential_energy=-585.7002457715162 energy=-585.7002457715162 state=4 converged=T pbc="T T T"
K        0.89941260       9.90960726       7.60091570
K        3.97344311       4.64483255      11.42411890
K        2.17574929       9.90927922       1.26008599
K        5.24982654       4.64520618       5.08330350
V        3.17558130      -0.01387355       4.98820580
V        2.97389559       5.25064550       7.69592565
V       -0.09958464      -0.01378956      11.32889641
V        6.24905773       5.25085416       1.35526145
V        1.62158299       2.54506872       3.10814879
V        4.52773179       7.80967246       9.57602591
V        1.45443150       2.54508605       9.44891634
V        4.69488464       7.80966399       3.23525873
P        2.01723537       2.60273997       6.28581565
P        4.13209583       7.86732482       6.39835530
P        1.05908139       2.60265841      12.62652387
P        5.09021541       7.86722001       0.05765676
P        3.16994726       5.18847488       2.39698033
P        2.97953112      -0.07602750      10.28717751
P       -0.09403578       5.18836216       8.73758851
P        6.24351475      -0.07602089       3.94655023
O        2.97423654       1.39526522       6.17312262
O        3.17516203       6.65979390       6.51102780
O        0.10178169       1.39543451      12.51382512
O        6.04760640       6.66006611       0.17034977
O        2.87858543       3.87088761       6.41975650
O        3.27065626       9.13541345       6.26442205
O        0.19739423       3.87099774       0.07891529
O        5.95182800       9.13568315      12.60528535
O        1.16766383       2.71849020       5.02389178
O        4.98164819       7.98312932       7.66028347
O        1.90858483       2.71831250      11.36453266
O        4.24070192       7.98282362       1.31964381
O        1.12801701       2.40939284       7.50688394
O        5.02132797       7.67402992       5.17729087
O        1.94774419       2.40920160       1.16601764
O        4.20157772       7.67377070      11.51815825
O        1.96426492       5.46626542       1.49674990
O        4.18519774       0.20181857      11.18741545
O        1.11171550       5.46610664       7.83745648
O        5.03774915       0.20167515       4.84667250
O        4.36570749       4.97222121       1.46138346
O        1.78345661      10.23670413      11.22283752
O        4.85725447       4.97212310       7.80215340
O        1.29191252      10.23653875       4.88204179
O        3.46157168       6.34897375       3.34956022
O        2.68784010       1.08448423       9.33462771
O        5.76119034       6.34919581       9.69017754
O        0.38822551       1.08455183       2.99397323
O        2.92882355       3.93956230       3.24945632
O        3.22039774       9.20412631       9.43474589
O        0.14708759       3.93963326       9.59031348
O        6.00214409       9.20429881       3.09385365
F        3.31088641       9.13462986       3.57573390
F        2.83835499       3.87011261       9.10845386
F        5.91155247       9.13477996       9.91665270
F        0.23768061       3.87008843       2.76755463
F        2.99821872       1.21347391       3.46425083
F        3.15117793       6.47799470       9.21988869
F        0.07777340       1.21349449       9.80493774
F        6.07162191       6.47813502       2.87922378
59
Lattice="6.132240757537401 -0.0031639500932600377 -0.003626902007318316 -0.005998451378810726 10.503307326066745 0.0005960757678697599 -0.00737667506685261 0.0006804770990589658 12.643828558311489" Properties=species:S:1:pos:R:3 volume=814.3734186696903 potential_energy=-575.6832174818701 energy=-575.6832174818701 state=5 converged=T pbc="T T T"
K        0.89656868       9.88668311       7.58327614
K        3.95364575       4.62411251      11.39477688
K        5.24231706       4.64175504       5.05686762
V        3.16064391      -0.02629313       4.94745024
V        2.96662023       5.23029913       7.65673297
V       -0.05406152      -0.03650663      11.35661643
V        6.22686631       5.24390787       1.33838890
V        1.60701490       2.52055686       3.08072142
V        4.51285082       7.79720261       9.54549107
V        1.45565256       2.52833495       9.43018801
V        4.64598524       7.81376472       3.18846789
P        1.99980282       2.57991449       6.26666466
P        4.11936650       7.84595254       6.36297016
P        1.04863395       2.60530288      12.59833420
P        5.05348564       7.82985482       0.04908865
P        3.14848581       5.17331756       2.39912388
P        3.00030636      -0.06494261      10.26864985
P       -0.09269584       5.17289343       8.70952994
P        6.21283752      -0.07486850       3.91014599
O        2.93447703       1.35639160       6.16722232
O        3.17327933       6.62679894       6.46995156
O        0.09591813       1.40562303      12.49846303
O        6.01653060       6.62050887       0.13983606
O        2.87338751       3.84048070       6.39749967
O        3.24953423       9.10723185       6.24313921
O        0.18959809       3.87638791       0.06551983
O        5.89136164       9.10496618      12.57119732
O        1.15283739       2.70403566       5.00374574
O        4.97016704       7.95415297       7.62561135
O        1.90724930       2.71431726      11.34137494
O        4.22678296       7.90078244       1.32293706
O        1.10917089       2.40630522       7.49195707
O        5.00206155       7.66102917       5.13564100
O        1.93904279       2.47861877       1.18814578
O        4.16566318       7.63169383      11.46780548
O        1.94501319       5.46256032       1.50207614
O        4.21914733       0.21733196      11.12907108
O        1.10751674       5.45391568       7.80504862
O        5.01582759       0.20908598       4.82778525
O        4.34150757       4.93978229       1.46862057
O        1.78428070      10.22057579      11.17868759
O        4.84412906       4.93892777       7.77629862
O        1.27233044      10.18766145       4.83114091
O        3.45357345       6.33409212       3.35194007
O        2.69288523       1.09963478       9.31065751
O        5.73899022       6.33167847       9.65383736
O        0.36040356       1.11512184       2.99180239
O        2.88656468       3.93584339       3.26284805
O        3.22843460       9.19107811       9.39969360
O        0.16216601       3.92837137       9.56797652
O        5.90890005       9.18640955       3.06754406
F        3.28765727       9.09821229       3.56730799
F        2.82472696       3.85768997       9.08287431
F        5.90609538       9.08707499       9.90468258
F        0.23582039       3.85790546       2.76160045
F        2.98577286       1.25789780       3.48565451
F        3.14128055       6.47145983       9.17266912
F        0.10250035       1.20732992       9.80615585
F        6.02482321       6.48476540       2.85904399
58
Lattice="6.111687857681638 0.00015201471037716772 -0.01337913358399142 -0.0003011912479272392 10.493607001182347 2.291081682165383e-05 -0.027483116250690946 -2.5932455293637012e-05 12.609291279103118" Properties=species:S:1:pos:R:3 volume=808.6760219294647 potential_energy=-565.5933228600352 energy=-565.5933228600352 state=6 converged=T pbc="T T T"
K        0.87792690       9.90483439       7.57109547
K        5.20791742       4.65815710       5.02697462
V        3.12722431      -0.03511242       4.94158039
V        2.95886730       5.21168075       7.65645642
V       -0.04362419      -0.04126377      11.33814060
V        6.12971629       5.20571334       1.25991079
V        1.58212526       2.53447231       3.08251910
V        4.50381776       7.78133520       9.51553803
V        1.48171348       2.55766077       9.45175855
V        4.60422831       7.80455389       3.14629862
P        1.98063412       2.57348086       6.27075361
P        4.10530835       7.82034685       6.32729847
P        1.04698254       2.58320217      12.57774285
P        5.03895808       7.83011980       0.02031289
P        3.08205096       5.18371157       2.37109840
P        3.00404238      -0.06310876      10.22695254
P       -0.08207474       5.17235300       8.71298077
P        6.16816898      -0.07428665       3.88506001
O        2.89767341       1.33355498       6.16863847
O        3.18834138       6.58036679       6.42940724
O        0.11020474       1.36438630      12.49744759
O        5.97580827       6.61135941       0.10060837
O        2.86902211       3.82390227       6.38682168
O        3.21684685       9.07071633       6.21123511
O        0.19904337       3.84535483       0.06606246
O        5.88682207       9.09227300      12.53200392
O        1.12831116       2.69861666       5.00998690
O        4.95761833       7.94552629       7.58807420
O        1.89136030       2.66382576      11.31714174
O        4.19456924       7.91068928       1.28091336
O        1.10205353       2.40977046       7.50485458
O        4.98390344       7.65669242       5.09320550
O        1.94148679       2.46235483       1.21289797
O        4.14446672       7.70917558      11.38515595
O        1.86459557       5.46021181       1.50771713
O        4.22148366       0.21344468      11.09033781
O        1.11000917       5.45173558       7.78598425
O        4.97606982       0.20503643       4.81205160
O        4.28773630       4.94170907       1.46359944
O        1.79806746      10.18843548      11.13447613
O        4.83293223       4.91810716       7.78447252
O        1.25287270      10.16482363       4.81358755
O        3.39728379       6.35902479       3.31421476
O        2.68874583       1.11219550       9.28384644
O        5.74624347       6.36889215       9.60648728
O        0.33978660       1.12196422       2.99155277
O        2.83529282       3.95604520       3.26526431
O        3.25056432       9.20284606       9.33280858
O        0.22225889       3.93908582       9.56537295
O        5.86360177       9.18604422       3.03267864
F        3.26128127       9.10241434       3.53713742
F        2.82458672       3.85559420       9.06092091
F        5.89159013       9.08141242       9.85824082
F        0.19427859       3.83447631       2.73982541
F        2.95595169       1.27326548       3.49738289
F        3.13006357       6.52005816       9.10066279
F        0.12915717       1.22694277       9.80021251
F        5.95686188       6.47390934       2.79784237
57
Lattice="6.088355036843534 -0.0013948576093578344 -0.009697545289444408 -0.002959249122741053 10.484611044614981 0.0008507016417837029 -0.019858756745443375 0.0009746554761679527 12.574582170392262" Properties=species:S:1:pos:R:3 volume=802.6842355805018 potential_energy=-555.3775378079295 energy=-555.3775378079295 state=7 converged=T pbc="T T T"
K        5.19811035       4.64863214       5.02587481
V        3.07373327      -0.05466938       4.99958879
V        2.94835360       5.21820830       7.63781136
V       -0.04041151      -0.04813389      11.28108400
V        6.10213592       5.19647627       1.24300186
V        1.56913040       2.51634508       3.07976926
V        4.52258891       7.80312453       9.45644059
V        1.48089822       2.53597848       9.40238584
V        4.58063447       7.80538421       3.14431070
P        1.97330447       2.58009215       6.26221871
P        4.11207661       7.80113741       6.31260389
P        1.05830886       2.56968288      12.53684031
P        5.00875137       7.82399484       0.01071782
P        3.06520059       5.17346962       2.36641850
P        3.00275605      -0.06224110      10.16858537
P       -0.07642950       5.16621261       8.71364119
P        6.11922654      -0.06750806       3.88981883
O        2.89793830       1.35318181       6.16751334
O        3.18007507       6.56749492       6.40172862
O        0.13312052       1.33978500      12.46046394
O        5.94715032       6.60050944       0.09736851
O        2.86118392       3.83778614       6.36271411
O        3.24323008       9.06500853       6.20558861
O        0.19110381       3.82628953       0.06688427
O        5.86957416       9.08689543      12.49389618
O        1.11714078       2.69783157       5.00272535
O        4.94727419       7.88855651       7.57936493
O        1.90106406       2.66347078      11.28115911
O        4.17015070       7.90230642       1.27615385
O        1.10051032       2.46839068       7.50283193
O        4.97687477       7.62692620       5.07111369
O        1.93906412       2.45524499       1.21345881
O        4.13127305       7.70060165      11.34032474
O        1.85266501       5.44912617       1.49418208
O        4.21449376       0.21114014      11.05813613
O        1.11714106       5.44603672       7.78151710
O        4.91591540       0.21546632       4.78165803
O        4.26898861       4.92827574       1.45618439
O        1.79309264      10.17490209      11.07326795
O        4.82125961       4.91249334       7.77807619
O        1.23820032      10.17127646       4.79414338
O        3.37838715       6.34930600       3.30505890
O        2.71267391       1.13955575       9.25926991
O        5.73437399       6.36232026       9.60771743
O        0.32203835       1.13108542       2.98265729
O        2.81673385       3.94603339       3.25893870
O        3.28636835       9.19783714       9.29414747
O        0.23187613       3.93694397       9.56449350
O        5.82926639       9.18185383       3.02534401
F        3.23374736       9.07466089       3.56107115
F        2.81782316       3.85539783       9.03905912
F        5.88349608       9.07818632       9.84412195
F        0.19425854       3.83298104       2.72898587
F        2.91929750       1.25979712       3.51676398
F        3.14422307       6.52411617       9.07558101
F        0.12800890       1.25439391       9.80237599
F        5.92916650       6.46845231       2.77734784
