55
Lattice="9.334882821831997 0.0077100574173662425 -0.014497077188360978 0.004951115870682311 5.955517107376068 -0.001772744215667296 -0.01595730890822517 -0.003029195759986237 10.18176976535296" Properties=species:S:1:pos:R:3 volume=566.0440455393083 potential_energy=-517.0484094555726 energy=-517.0484094555726 state=1 pbc="T T T"
Li      -0.00797865      -0.00151460       5.09088488
Li       2.34062410       0.01654008      -0.00252602
Li       2.34324400       2.97183218       0.00083653
Li      -0.00550310       2.97624396       5.08999851
Fe       2.23040147       4.45971468       7.30791392
Fe       0.14090785       4.47416059       2.23754434
Fe       4.56472467       1.50615552       7.89306157
Fe       2.48599676       1.49937422       2.89586260
P        1.94418821       1.45793866       6.10019258
P        4.28239819       4.47296557       9.22871845
P        0.37751555       1.48985618       0.97552605
P        2.70381381       4.45543628       4.13798203
O        3.44510532       1.38664991       6.17129709
O        1.13025348       4.46925246       9.18237690
O        3.52400120       1.49271686       0.96082973
O        1.17496537       4.46585895       4.10839126
O        0.93503900       1.48257204       9.72988500
O        3.23189248       4.49673382       5.56397373
O        1.38966798       1.48257250       4.66449972
O        3.71855084       4.46981882       0.47334325
O        1.25542010       0.24845737       6.80654460
O        3.65916419       5.69941693       8.51241037
O        3.65177816       3.25151988       8.50533394
O        1.32414275       2.69058494       6.81798905
O        1.00108374       2.71663618       1.68975568
O        3.28153123       3.27386747       3.32937713
O        3.33055120       5.69277511       3.41249128
O        1.01974535       0.27628160       1.70080010
Li       4.65946276       0.00234043       5.08363634
Li       6.99425872      -0.00883002      -0.01197105
Li       6.99658993       2.99139498      -0.01710635
Fe       6.83787987       4.46082375       7.26963734
Fe       4.75915195       4.45404245       2.27243837
Fe       9.18296878       1.48603738       7.92795561
Fe       7.09347516       1.50048329       2.85758603
P        6.62006282       1.50476169       6.02751791
P        8.94636108       4.47034179       9.18997389
P        5.04147844       1.48723240       0.93678149
P        7.37968842       4.50225931       4.06530736
O        8.14891125       1.49433902       6.05710869
O        5.79987543       4.46748111       9.20467022
O        8.19362315       1.49094551       0.98312304
O        5.87877131       4.57354806       3.99420286
O        5.60532579       1.49037915       9.69215670
O        7.93420865       4.47762547       5.50100022
O        6.09198415       1.46346414       4.60152622
O        8.38883762       4.47762592       0.43561494
O        5.99332543       0.26742286       6.75300866
O        8.30413128       5.68391637       8.46469984
O        8.32279289       3.24356179       8.47574426
O        6.04234539       2.68633050       6.83612281
O        5.67209847       2.70867809       1.66016601
O        7.99973387       3.26961303       3.34751089
O        8.06845652       5.71174059       3.35895534
O        5.66471244       0.26078104       1.65308958
