54
Lattice="9.34229251703648 0.012988480503266606 -0.024435196595875026 0.008337662750201065 5.9381118433771904 -0.0024871331484167267 -0.026877060389992904 -0.004255686184118188 10.136564111542544" Properties=species:S:1:pos:R:3 volume=562.3266566918004 potential_energy=-511.8866764740811 energy=-511.8866764740811 state=2 pbc="T T T"
Li      -0.01343853      -0.00212784       5.06828206
Li       2.33714242       0.00537545      -0.00548122
Li       2.33932339       2.97065995      -0.00854684
Fe       2.19830175       4.43008057       7.24217011
Fe       0.10747703       4.44452165       2.27628569
Fe       4.54937209       1.49551704       7.84584925
Fe       2.45595232       1.51034443       2.88493747
P        1.95173843       1.45823341       6.05912188
P        4.28192630       4.46089232       9.17381840
P        0.37059640       1.47876333       0.95106645
P        2.70032025       4.48214238       4.06884423
O        3.46118915       1.37800462       6.15118075
O        1.12808424       4.45383438       9.15014710
O        3.52340548       1.48669599       0.96818205
O        1.19249952       4.56343273       3.97669309
O        0.91202259       1.48321180       9.65627836
O        3.19548371       4.49474619       5.50809297
O        1.45892530       1.44562885       4.62026367
O        3.73885316       4.45708907       0.46761433
O        1.25768828       0.23668668       6.76464855
O        3.64110629       5.68144089       8.46361101
O        3.65008096       3.23936276       8.45492264
O        1.36979529       2.64729943       6.86042816
O        1.00434013       2.69998572       1.67006073
O        3.28277519       3.29242876       3.26814080
O        3.39586145       5.70341592       3.36332737
O        1.01330197       0.25821878       1.66050412
Li       4.65770773       0.00436640       5.05606446
Li       7.00515009       0.00761303      -0.01895397
Li       7.01130679       2.98044037      -0.01837549
Fe       6.86780080       4.43650021       7.22470431
Fe       4.77438103       4.45132759       2.26379253
Fe       9.21627609       1.50232299       7.83335609
Fe       7.12545137       1.51676406       2.86747167
P        6.62343287       1.46470225       6.04079755
P        8.95315672       4.46808131       9.15857534
P        5.04182682       1.48595232       0.93582338
P        7.37201469       4.48861123       4.05051990
O        8.13125360       1.38341190       6.13294870
O        5.80034764       4.46014865       9.14145973
O        8.19566888       1.49301026       0.95949469
O        5.86256397       4.56884002       3.95846103
O        5.58489996       1.48975557       9.64202746
O        7.86482782       4.50121579       5.48937811
O        6.12826941       1.45209845       4.60154881
O        8.41173053       4.46363284       0.45336342
O        5.92789167       0.24342872       6.74631441
O        8.31045115       5.68862586       8.44913766
O        8.31941299       3.24685892       8.43958105
O        6.04097793       2.65441588       6.84150098
O        5.67367216       2.70748188       1.65471914
O        7.95395783       3.29954520       3.24921362
O        8.06606484       5.71015796       3.34499323
O        5.68264683       0.26540375       1.64603077
