53
Lattice="9.348542693300582 0.006885454286798256 -0.012592308793830163 0.004453122639207518 5.919713790045001 -0.002156710489713706 -0.013999400931160377 -0.003693638781225537 10.092512614842605" Properties=species:S:1:pos:R:3 volume=558.5252565130721 potential_energy=-506.7144919632177 energy=-506.7144919632177 state=3 pbc="T T T"
Li       0.00159174      -0.02363322       5.04922936
Li       2.33713681       0.00029342      -0.00063365
Fe       2.23591655       4.40449793       7.27455318
Fe       0.12901266       4.41908315       2.24339046
Fe       4.53802912       1.49974904       7.84169187
Fe       2.43099866       1.51665180       2.80954346
P        1.96207268       1.45958369       6.01322720
P        4.29885382       4.43297515       9.15183017
P        0.36571462       1.48587238       0.93343909
P        2.70285838       4.46264359       4.07190645
O        3.46957013       1.38205052       6.13197909
O        1.12008265       4.53167119       9.00554721
O        3.54597865       1.38901782       1.07610733
O        1.19693861       4.53967468       3.95584038
O        0.84962184       1.44254749       9.58779298
O        3.17827306       4.48279752       5.51842578
O        1.49034903       1.43971952       4.56696828
O        3.81214345       4.47622176       0.49631531
O        1.25930999       0.24305058       6.71653518
O        3.64722464       5.66297240       8.43828277
O        3.70165863       3.25074686       8.35707253
O        1.36285271       2.65208780       6.80023191
O        0.96408784       2.66834387       1.72719169
O        3.30206698       3.27016414       3.28437642
O        3.40587269       5.67912666       3.36815953
O        1.01964536       0.25644472       1.64614857
Li       4.65824181       0.02418704       5.03743172
Li       7.01146495       0.00414758      -0.01049944
Li       7.01420360       2.96584640      -0.00941651
Fe       6.86702327       4.43034666       7.22249778
Fe       4.75784438       4.42635006       2.25741846
Fe       9.25428017       1.50070094       7.81306219
Fe       7.14599857       1.49400314       2.84860323
P        6.63253410       1.46171433       6.03098132
P        8.96920929       4.47220517       9.08963642
P        5.04548486       1.45504696       0.98017163
P        7.38109011       4.46184468       4.03960272
O        8.13945444       1.38123241       6.13630759
O        5.82685508       4.44279534       9.09218451
O        8.18683077       1.48251096       0.98258822
O        5.87260394       4.54325294       3.93229257
O        5.56784947       1.47680901       9.62801028
O        7.85561420       4.48525174       5.48492652
O        6.15525963       1.43915505       4.58519215
O        8.44846549       4.45003100       0.44225843
O        5.91926020       0.25056101       6.73657290
O        8.25946339       5.67329568       8.39417278
O        8.33273270       3.23952847       8.38353536
O        6.04023372       2.65150587       6.82204777
O        5.68137687       2.68797487       1.68601886
O        7.97327224       3.27134058       3.25010158
O        8.09396559       5.67240957       3.33310293
O        5.75393424       0.25340365       1.67600828
