52
Lattice="9.370949846556204 0.004988510439193272 -0.007957182814742428 0.003273788175622217 5.899534543485526 -0.00502376764061537 -0.009086876155383346 -0.008586634352692045 10.050395710713602" Properties=species:S:1:pos:R:3 volume=555.627517440216 potential_energy=-501.4940920763323 energy=-501.4940920763323 state=4 pbc="T T T"
Li      -0.00492041      -0.00341674       5.02597093
Li       2.34303431       0.00134839      -0.00205959
Fe       2.24017994       4.39320114       7.25256862
Fe       0.09808635       4.39420418       2.23359047
Fe       4.58199388       1.49922932       7.80777040
Fe       2.43988873       1.50023785       2.78872985
P        1.97856074       1.45241621       5.99507954
P        4.32415986       4.44030696       9.06569494
P        0.35595788       1.45312445       0.97556422
P        2.70154987       4.44107820       4.04613335
O        3.48459360       1.37254918       6.11500521
O        1.14353945       4.51841331       8.94835912
O        3.53665593       1.37494315       1.09316232
O        1.19557614       4.52102200       3.92616447
O        0.81333662       1.42969856       9.57726056
O        3.16993178       4.45683168       5.49516669
O        1.51009633       1.43658806       4.54610786
O        3.86694951       4.46379012       0.46401988
O        1.25916971       0.24247557       6.69338171
O        3.60416174       5.64941075       8.36763530
O        3.71960980       3.25004509       8.27830463
O        1.37519164       2.64229958       6.78329446
O        0.96046440       2.64339117       1.76298233
O        3.30488585       3.25117856       3.25791552
O        3.42105217       5.65100969       3.34794175
O        1.07595893       0.24401341       1.67359481
Li       4.68191710      -0.00269750       5.02034794
Li       7.02846878       0.00375008      -0.00596535
Fe       6.92785552       4.39633176       7.24870468
Fe       4.78483447       4.39694352       2.22726104
Fe       9.26639821       1.50142015       7.80616540
Fe       7.12339834       1.50207592       2.78478912
P        6.66417899       1.45597543       5.99034872
P        9.00929002       4.44317257       9.06438112
P        5.04188583       1.45514529       0.96915633
P        7.38702787       4.44244226       4.04324700
O        8.17072503       1.37556238       6.11070210
O        5.83078390       4.51942104       8.94192530
O        8.22031141       1.37895911       1.09131068
O        5.88040780       4.52281651       3.92296812
O        5.50085154       1.43066445       9.57028107
O        7.85621224       4.45822060       5.49172010
O        6.19509328       1.44023584       4.54180987
O        8.55017196       4.46762909       0.46322917
O        5.94562365       0.24593357       6.68887911
O        8.28829078       5.65242005       8.36610714
O        8.40392107       3.25277391       8.27776353
O        6.06147334       2.64599401       6.77833168
O        5.64725124       2.64554020       1.75577881
O        7.98969358       3.25244342       3.25521939
O        8.10549274       5.65248253       3.34462603
O        5.76290495       0.24591319       1.66742475
