51
Lattice="9.419238030635483 0.007845223173394398 0.010977008015244559 0.005087790130513171 5.87722129999559 -0.008501612024877155 0.011138744715224696 -0.014530795082935127 10.005115223536556" Properties=species:S:1:pos:R:3 volume=553.8703540965184 potential_energy=-495.854420232617 energy=-495.854420232617 state=5 pbc="T T T"
Li      -0.01023616       0.00545641       5.01190530
Li       2.35506959       0.00194977       0.00273438
Fe       2.24215346       4.36491045       7.22989096
Fe       0.10072532       4.37946926       2.23136701
Fe       4.62564269       1.48712772       7.77071402
Fe       2.48421432       1.50168515       2.77219082
P        1.99212780       1.44535796       5.97410862
P        4.33928812       4.39035566       9.00397741
P        0.38708067       1.47624195       0.99810329
P        2.73423973       4.42123669       4.02797303
O        3.49816667       1.36841217       6.10585753
O        1.15762850       4.49626383       8.88642349
O        3.56873937       1.37033317       1.11565859
O        1.22820091       4.49818267       3.89622388
O        0.83433540       1.42451004       9.54263104
O        3.18346339       4.43062069       5.48266559
O        1.54290412       1.43597459       4.51941610
O        3.89203319       4.44208681       0.45944968
O        1.26688556       0.23518743       6.66171598
O        3.61740212       5.60608525       8.31181139
O        3.67465390       3.21047205       8.23645198
O        1.36687415       2.62811736       6.75760881
O        1.05171509       2.65612551       1.76562848
O        3.35949399       3.23847736       3.24447355
O        3.45948178       5.63140731       3.34036522
O        1.10896594       0.26051199       1.69026982
Li       4.73151435      -0.01608238       4.99868039
Fe       6.99027141       4.39891036       7.28110784
Fe       4.85212330       4.39006066       2.18990210
Fe       9.29348235       1.48438284       7.82315635
Fe       7.15533480       1.47553249       2.73194919
P        6.71453873       1.45839757       5.96407974
P        9.06362160       4.43673684       9.06258421
P        5.08198402       1.43770675       0.95047407
P        7.43106721       4.41604549       4.04897739
O        8.21867545       1.37696710       6.11010774
O        5.82670373       4.41347002       8.82961397
O        8.31890306       1.46097369       1.18344359
O        5.92693045       4.49747591       3.90295015
O        5.46871542       1.45502757       9.49599411
O        7.88218372       4.44618744       5.50232482
O        6.26342270       1.42825556       4.51073227
O        8.67688993       4.41941676       0.51706407
O        5.98233953       0.25152020       6.66072917
O        8.37429412       5.61356504       8.30435838
O        8.44588002       3.23146154       8.28643316
O        6.09607296       2.64888501       6.73560522
O        5.69972582       2.64298204       1.72662489
O        8.04953281       3.22555802       3.27745182
O        8.16326645       5.62292271       3.35232799
O        5.77131222       0.26087847       1.70869930
