50
Lattice="9.489139091738192 0.013783937049950165 0.04834511914335712 0.00881489831737205 5.858344953167587 -0.008328487014182097 0.050952801329175346 -0.01426312329357211 9.972280201680238" Properties=species:S:1:pos:R:3 volume=554.3487576798033 potential_energy=-490.0729874129469 energy=-490.0729874129469 state=6 pbc="T T T"
Li       0.02553241      -0.00677987       4.98616157
Fe       2.29126424       4.37399756       7.26503005
Fe       0.16664290       4.37604999       2.18384568
Fe       4.63821883       1.47490439       7.80426255
Fe       2.51359750       1.47695682       2.72307818
P        2.02988679       1.45124210       5.95342247
P        4.38705108       4.39581609       9.02201117
P        0.41781066       1.45513829       0.96609706
P        2.77497495       4.39971227       4.03468576
O        3.53383111       1.37242306       6.11446258
O        1.13411561       4.39558061       8.78191912
O        3.67074613       1.45537376       1.20618911
O        1.27103063       4.47853131       3.87364565
O        0.80609566       1.45067106       9.46609180
O        3.20159629       4.42400206       5.49537987
O        1.60326544       1.42695231       4.49272836
O        3.99876608       4.40028331       0.52201643
O        1.28868929       0.24533182       6.63673377
O        3.69796337       5.58098226       8.27219583
O        3.71307764       3.19943544       8.26759782
O        1.39125976       2.63530584       6.71727641
O        1.09178409       2.65151893       1.72051041
O        3.41360197       3.21564853       3.27083182
O        3.51617245       5.60562256       3.35137447
O        1.10689837       0.26997212       1.71591240
Li       4.77051442      -0.00061069       5.01027514
Fe       7.03586569       4.38088249       7.28928118
Fe       4.91117956       4.38293122       2.20791031
Fe       9.38282127       1.48180709       7.82854304
Fe       7.25813514       1.48385582       2.74717218
P        6.77441296       1.45814952       5.97759421
P        9.13151620       4.40269785       9.04637490
P        5.16248463       1.46204046       0.99007845
P        7.51958787       4.40658879       4.05885914
O        8.27846545       1.37932491       6.13868544
O        5.87853354       4.40251282       8.80609810
O        8.41546728       1.46222549       1.23035526
O        6.01553538       4.48541340       3.89776791
O        5.55055068       1.45756818       9.49027706
O        7.94607645       4.43092225       5.51956363
O        6.34792437       1.43381606       4.51688973
O        8.74345016       4.40717012       0.54617629
O        6.03329551       0.25222873       6.66088799
O        8.44258975       5.58787697       8.29644831
O        8.45766041       3.20632128       8.29186762
O        6.13584984       2.64219025       6.74142072
O        5.83634042       2.65841703       1.74458573
O        8.15815099       3.22254805       3.29503263
O        8.26070531       5.61250958       3.37556537
O        5.85141108       0.27686134       1.74000504
