49
Lattice="9.570548865963199 0.009032996319646044 0.030144265692749327 0.005874274668491706 5.844481872306432 -0.007302868190841351 0.03147225274591354 -0.012516399537811917 9.939265079970536" Properties=species:S:1:pos:R:3 volume=555.9448407111801 potential_energy=-484.1065068036927 energy=-484.1065068036927 state=7 pbc="T T T"
Li       0.01672455      -0.00608865       4.96964326
Fe       2.27979778       4.36212371       7.25443073
Fe       0.20556437       4.35457075       2.18247423
Fe       4.65767091       1.44108741       7.71419421
Fe       2.58221712       1.46141269       2.74568420
P        1.99582564       1.46950381       5.96018241
P        4.40277342       4.37609998       8.99746419
P        0.44276206       1.44989830       0.96167168
P        2.80317583       4.40016131       4.04370529
O        3.47889852       1.44865231       6.17836977
O        1.08799968       4.38755261       8.74202921
O        3.71966051       1.45907116       1.21432328
O        1.29246864       4.46551538       3.83590794
O        0.77950120       1.45310460       9.42168419
O        3.12022834       4.37947937       5.51725863
O        1.61308177       1.42639136       4.48477781
O        4.06802518       4.38855790       0.53791851
O        1.25289698       0.25506728       6.62886545
O        3.69886890       5.56337706       8.26229246
O        3.70935514       3.18496952       8.26163508
O        1.29860173       2.64159125       6.70179540
O        1.13180786       2.64140566       1.70755782
O        3.45485849       3.20074862       3.29739873
O        3.51568480       5.57660549       3.30722205
O        1.13793302       0.26462724       1.69808800
Fe       7.02760580       4.37970236       7.21631506
Fe       4.95232265       4.40003622       2.24836783
Fe       9.40425993       1.48653624       7.77933887
Fe       7.33026272       1.47899269       2.70790806
P        6.80659072       1.44095729       5.91872332
P        9.16719239       4.39119793       8.99992739
P        5.20734154       1.46503024       0.96471931
P        7.61469105       4.37166657       4.00234396
O        8.31723913       1.37563187       6.12594868
O        5.89041435       4.38207604       8.74798654
O        8.52161972       1.45353591       1.22006172
O        6.13081215       4.39245632       3.78406839
O        5.54220455       1.45256384       9.42476501
O        7.99706606       4.41472666       5.47720290
O        6.48931716       1.46168247       4.44465366
O        8.83010527       4.38797635       0.54040551
O        6.09417550       0.26453837       6.65493644
O        8.47190834       5.57643944       8.26377113
O        8.47802609       3.19971363       8.25430136
O        6.15497518       2.64032436       6.66477907
O        5.90071815       2.65621840       1.70091447
O        8.31137457       3.19957439       3.26029541
O        8.35700378       5.58612153       3.33328308
O        5.91118554       0.27770424       1.70027903
