48
Lattice="9.636825956176862 2.5259067271458483e-17 1.9776150948745518e-14 1.119904668872191e-16 5.859087028673354 5.692987375214505e-14 1.5277348706412628e-14 9.441803160669163e-14 9.93177126876547" Properties=species:S:1:pos:R:3 volume=560.7776205889376 potential_energy=-477.8357090556379 energy=-477.8357090556379 state=8 removed_atom="_JSON [-1]" pbc="T T T"
Fe       2.23242872       4.39431527       7.20077416
Fe       0.17677777       4.39431527       2.23488853
Fe       4.64163521       1.46477176       7.69688274
Fe       2.58598425       1.46477176       2.73099710
P        1.98997341       1.46477176       5.93130046
P        4.39917990       4.39431527       8.96635645
P        0.41923308       1.46477176       0.96541482
P        2.82843957       4.39431527       4.00047081
O        3.48077964       1.46477176       6.18373316
O        1.07157316       4.39431527       8.71392374
O        3.74683982       1.46477176       1.21784752
O        1.33763333       4.39431527       3.74803811
O        0.70084211       1.46477176       9.41240981
O        3.11004860       4.39431527       5.48524709
O        1.70836438       1.46477176       4.44652418
O        4.11757087       4.39431527       0.51936146
O        1.28597444       0.27796553       6.65911023
O        3.69518093       5.58112150       8.23854667
O        3.69518093       3.20750904       8.23854667
O        1.28597444       2.65157799       6.65911023
O        1.12323204       2.65157799       1.69322460
O        3.53243853       3.20750904       3.27266103
O        3.53243853       5.58112150       3.27266103
O        1.12323204       0.27796553       1.69322460
Fe       7.05084170       4.39431527       7.20077416
Fe       4.99519074       4.39431527       2.23488853
Fe       9.46004819       1.46477176       7.69688274
Fe       7.40439723       1.46477176       2.73099710
P        6.80838639       1.46477176       5.93130046
P        9.21759288       4.39431527       8.96635645
P        5.23764605       1.46477176       0.96541482
P        7.64685254       4.39431527       4.00047081
O        8.29919262       1.46477176       6.18373316
O        5.88998613       4.39431527       8.71392374
O        8.56525280       1.46477176       1.21784752
O        6.15604631       4.39431527       3.74803811
O        5.51925509       1.46477176       9.41240981
O        7.92846158       4.39431527       5.48524709
O        6.52677736       1.46477176       4.44652418
O        8.93598385       4.39431527       0.51936146
O        6.10438742       0.27796553       6.65911023
O        8.51359391       5.58112150       8.23854667
O        8.51359391       3.20750904       8.23854667
O        6.10438742       2.65157799       6.65911023
O        5.94164502       2.65157799       1.69322460
O        8.35085151       3.20750904       3.27266103
O        8.35085151       5.58112150       3.27266103
O        5.94164502       0.27796553       1.69322460
