56
Lattice="11.921 0.0 0.0 0.0 5.9605 0.0 0.0 0.0 8.3793" Properties=species:S:1:pos:R:3 volume=595.39217120565 potential_energy=-533.7371920295424 energy=-533.7371920295424 state=8 converged=T pbc="T T T"
Mg       0.00000000       0.00000000       0.00000000
Mg       2.98025000       2.98025000       4.18965000
Mg       0.00000000       2.98025000       6.28447500
Mg       2.98025000       0.00000000       2.09482500
V        1.49012500       0.00000000       5.23706250
V        0.00000000       1.49012500       3.14223750
V        2.98025000       1.49012500       7.33188750
V        1.49012500       2.98025000       1.04741250
V        4.47037500       2.98025000       1.04741250
V        2.98025000       4.47037500       7.33188750
V        0.00000000       4.47037500       3.14223750
V        4.47037500       0.00000000       5.23706250
O        4.55859040       0.00000000       3.24446496
O        0.00000000       4.55859040       5.13483504
O        2.98025000       4.38215960       0.94518504
O        4.38215960       2.98025000       7.43411496
O        1.57834040       2.98025000       7.43411496
O        2.98025000       1.57834040       0.94518504
O        0.00000000       1.40190960       5.13483504
O        1.40190960       0.00000000       3.24446496
O        4.61521515       0.00000000       7.25731173
O        0.00000000       4.61521515       1.12198827
O        2.98025000       4.32553485       5.31163827
O        4.32553485       2.98025000       3.06766173
O        1.63496515       2.98025000       3.06766173
O        2.98025000       1.63496515       5.31163827
O        0.00000000       1.34528485       1.12198827
O        1.34528485       0.00000000       7.25731173
Mg       5.96050000       0.00000000       0.00000000
Mg       8.94075000       2.98025000       4.18965000
Mg       5.96050000       2.98025000       6.28447500
Mg       8.94075000       0.00000000       2.09482500
V        7.45062500       0.00000000       5.23706250
V        5.96050000       1.49012500       3.14223750
V        8.94075000       1.49012500       7.33188750
V        7.45062500       2.98025000       1.04741250
V       10.43087500       2.98025000       1.04741250
V        8.94075000       4.47037500       7.33188750
V        5.96050000       4.47037500       3.14223750
V       10.43087500       0.00000000       5.23706250
O       10.51909040       0.00000000       3.24446496
O        5.96050000       4.55859040       5.13483504
O        8.94075000       4.38215960       0.94518504
O       10.34265960       2.98025000       7.43411496
O        7.53884040       2.98025000       7.43411496
O        8.94075000       1.57834040       0.94518504
O        5.96050000       1.40190960       5.13483504
O        7.36240960       0.00000000       3.24446496
O       10.57571515       0.00000000       7.25731173
O        5.96050000       4.61521515       1.12198827
O        8.94075000       4.32553485       5.31163827
O       10.28603485       2.98025000       3.06766173
O        7.59546515       2.98025000       3.06766173
O        8.94075000       1.63496515       5.31163827
O        5.96050000       1.34528485       1.12198827
O        7.30578485       0.00000000       7.25731173
55
Lattice="11.80474261612702 -2.781640599173097e-17 4.446668865793837e-17 -1.7794501667927966e-16 5.909935683668291 -1.5601767291196446e-14 -3.322753744471888e-16 -2.6954906090358326e-14 8.35117820179388" Properties=species:S:1:pos:R:3 volume=582.6221989226209 potential_energy=-593.4626792540315 energy=-593.4626792540315 state=1 converged=T pbc="T T T"
Mg       0.07002239      -0.00000000       0.03654409
Mg       2.95118565       2.95496784       4.15125711
Mg      -0.00901006       2.95496784       6.26468465
V        1.49979174      -0.00000000       5.14998225
V        0.03696211       1.44327355       3.12149127
V        2.95118565       1.47067419       7.33770394
V        1.56829171       2.95496784       1.06038890
V        4.33407960       2.95496784       1.06038890
V        2.95118565       4.43926149       7.33770394
V        0.03696211       4.46666214       3.12149127
V        4.40257957      -0.00000000       5.14998225
O        4.58497885      -0.00000000       3.23266374
O       -0.01010329       4.54655306       5.14459599
O        2.95118565       4.30060461       0.92003386
O        4.31671351       2.95496784       7.37101632
O        1.58565780       2.95496784       7.37101632
O        2.95118565       1.60933107       0.92003386
O       -0.01010329       1.36338262       5.14459599
O        1.31739246      -0.00000000       3.23266374
O        4.31503344      -0.00000000       7.17691006
O        0.01403176       4.29627727       1.12158117
O        2.95118565       4.53032765       5.30814852
O        4.55058617       2.95496784       3.05597271
O        1.35178514       2.95496784       3.05597271
O        2.95118565       1.37960803       5.30814852
O        0.01403176       1.61365841       1.12158117
O        1.58733787      -0.00000000       7.17691006
Mg       5.83234892      -0.00000000       0.03654409
Mg       8.85355696       2.95496784       4.15357171
Mg       5.91138137       2.95496784       6.26468465
Mg       8.85355696      -0.00000000       2.09399868
V        7.38343112      -0.00000000       5.24567111
V        5.86540920       1.44327355       3.12149127
V        8.85355696       1.44527107       7.31638189
V        7.37618745       2.95496784       1.04455033
V       10.33092647       2.95496784       1.04455033
V        8.85355696       4.46466461       7.31638189
V        5.86540920       4.46666214       3.12149127
V       10.32368280      -0.00000000       5.24567111
O       10.42448700      -0.00000000       3.22625328
O        5.91247459       4.54655306       5.14459599
O        8.85355696       4.32781205       0.96957641
O       10.20232343       2.95496784       7.38852941
O        7.50479050       2.95496784       7.38852941
O        8.85355696       1.58212364       0.96957641
O        5.91247459       1.36338262       5.14459599
O        7.28262692      -0.00000000       3.22625328
O       10.25303404      -0.00000000       7.26589642
O        5.88833955       4.29627727       1.12158117
O        8.85355696       4.53376271       5.30159423
O       10.46421199       2.95496784       3.04975572
O        7.24290194       2.95496784       3.04975572
O        8.85355696       1.37617298       5.30159423
O        5.88833955       1.61365841       1.12158117
O        7.45407988      -0.00000000       7.26589642
54
Lattice="11.748034939190445 -2.6135624844153958e-17 5.466523635474939e-17 -1.832220733349546e-16 5.874046384057754 6.821526601767518e-14 -7.780206370072894e-16 8.618480757799581e-14 8.328873978268142" Properties=species:S:1:pos:R:3 volume=574.7631178725086 potential_energy=-585.4722137744029 energy=-585.4722137744029 state=2 converged=T pbc="T T T"
Mg      -0.00000000      -0.00000000       0.04805844
Mg       2.93700873       2.93702319       4.11615804
Mg       0.00000000       2.93702319       6.24653649
V        1.50012293       0.00000000       5.15317141
V        0.00000000       1.38163386       3.08838657
V        2.93700873       1.43689372       7.33990970
V        1.55538181       2.93702319       1.07582116
V        4.31863566       2.93702319       1.07582116
V        2.93700873       4.43715267       7.33990970
V        0.00000000       4.49241252       3.08838657
V        4.37389454       0.00000000       5.15317141
O        4.52818474      -0.00000000       3.22841661
O        0.00000000       4.52358403       5.12260128
O        2.93700873       4.28286037       0.93579165
O        4.28746462       2.93702319       7.37047974
O        1.58655285       2.93702319       7.37047974
O        2.93700873       1.59118601       0.93579165
O        0.00000000       1.35046235       5.12260128
O        1.34583273      -0.00000000       3.22841661
O        4.31999172       0.00000000       7.18762108
O        0.00000000       4.25539732       1.12076344
O        2.93700873       4.49105663       5.30546066
O        4.55564875       2.93702319       3.04344342
O        1.31836872       2.93702319       3.04344342
O        2.93700873       1.38298976       5.30546066
O        0.00000000       1.61864907       1.12076344
O        1.55402575       0.00000000       7.18762108
Mg       5.87401747      -0.00000000       0.04805844
Mg       8.81102620       2.93702319       4.11615804
Mg       5.87401747       2.93702319       6.24653649
V        7.37414040       0.00000000       5.15317141
V        5.87401747       1.38163386       3.08838657
V        8.81102620       1.43689372       7.33990970
V        7.42939928       2.93702319       1.07582116
V       10.19265313       2.93702319       1.07582116
V        8.81102620       4.43715267       7.33990970
V        5.87401747       4.49241252       3.08838657
V       10.24791201       0.00000000       5.15317141
O       10.40220221      -0.00000000       3.22841661
O        5.87401747       4.52358403       5.12260128
O        8.81102620       4.28286037       0.93579165
O       10.16148209       2.93702319       7.37047974
O        7.46057032       2.93702319       7.37047974
O        8.81102620       1.59118601       0.93579165
O        5.87401747       1.35046235       5.12260128
O        7.21985020      -0.00000000       3.22841661
O       10.19400919       0.00000000       7.18762108
O        5.87401747       4.25539732       1.12076344
O        8.81102620       4.49105663       5.30546066
O       10.42966622       2.93702319       3.04344342
O        7.19238619       2.93702319       3.04344342
O        8.81102620       1.38298976       5.30546066
O        5.87401747       1.61864907       1.12076344
O        7.42804322       0.00000000       7.18762108
53
Lattice="11.674371730312895 -2.3447964274087542e-17 9.724629224540362e-17 -3.1104124777266375e-16 5.87725849762627 -2.687064312927295e-14 7.937246147347847e-16 -4.477247208964524e-14 8.285181831090012" Properties=species:S:1:pos:R:3 volume=568.4736703127288 potential_energy=-577.2329108121371 energy=-577.2329108121371 state=3 converged=T pbc="T T T"
Mg       0.00644875      -0.00000000       0.04489486
Mg       0.08275765       2.93862925       6.17681006
V        1.58785361      -0.00000000       5.05211043
V        0.02543805       1.39460674       3.07904786
V        2.91859293       1.45093010       7.26756887
V        1.58463197       2.93862925       1.23881786
V        4.25255390       2.93862925       1.23881786
V        2.91859293       4.42632840       7.26756887
V        0.02543805       4.48265176       3.07904786
V        4.24933226      -0.00000000       5.05211043
O        4.47135512      -0.00000000       3.18400972
O        0.02770735       4.55055531       5.08865349
O        2.91859293       4.25417666       0.95460296
O        4.24892097       2.93862925       7.39972191
O        1.58826490       2.93862925       7.39972191
O        2.91859293       1.62308184       0.95460296
O        0.02770735       1.32670319       5.08865349
O        1.36583075      -0.00000000       3.18400972
O        4.27582729      -0.00000000       7.15753441
O        0.01909282       4.25675568       1.11956695
O        2.91859293       4.53726049       5.29878659
O        4.54718285       2.93862925       3.02565708
O        1.29000301       2.93862925       3.02565708
O        2.91859293       1.33999801       5.29878659
O        0.01909282       1.62050281       1.11956695
O        1.56135857      -0.00000000       7.15753441
Mg       5.83073711      -0.00000000       0.04489486
Mg       8.75577880       2.93862925       4.08520350
Mg       5.75442822       2.93862925       6.17681006
V        7.31947700      -0.00000000       5.13224100
V        5.81174781       1.39460674       3.07904786
V        8.75577880       1.46875660       7.29056098
V        7.36757066       2.93862925       1.03193445
V       10.14398693       2.93862925       1.03193445
V        8.75577880       4.40850189       7.29056098
V        5.81174781       4.48265176       3.07904786
V       10.19208059      -0.00000000       5.13224100
O       10.36506282      -0.00000000       3.20328552
O        5.80947851       4.55055531       5.08865349
O        8.75577880       4.28620017       0.92687606
O       10.13330730       2.93862925       7.29063913
O        7.37825029       2.93862925       7.29063913
O        8.75577880       1.59105833       0.92687606
O        5.80947851       1.32670319       5.08865349
O        7.14649478      -0.00000000       3.20328552
O       10.11728761      -0.00000000       7.15363160
O        5.81809305       4.25675568       1.11956695
O        8.75577880       4.49312020       5.26907075
O       10.36318368       2.93862925       3.01240649
O        7.14837391       2.93862925       3.01240649
O        8.75577880       1.38413830       5.26907075
O        5.81809305       1.62050281       1.11956695
O        7.39426998      -0.00000000       7.15363160
52
Lattice="11.588273113657978 -3.3910145549632245e-17 6.944641069047247e-18 -2.602927566560737e-16 5.874560164095815 -2.4148392406720548e-14 9.719769336401766e-16 -4.8430544829157604e-14 8.234057535675385" Properties=species:S:1:pos:R:3 volume=560.5417634117097 potential_energy=-568.8926592144148 energy=-568.8926592144148 state=4 converged=T pbc="T T T"
Mg       0.00000067      -0.00000000       0.04751378
Mg       0.00000053       2.93728008       6.13091088
V        1.56500533      -0.00000000       4.99159459
V       -0.00000234       1.46167956       3.08766276
V        2.89706828       1.46940889       7.20510326
V        1.56549401       2.93728008       1.19449803
V        4.22864254       2.93728008       1.19449803
V        2.89706828       4.40515128       7.20510326
V       -0.00000234       4.41288060       3.08766276
V        4.22913123      -0.00000000       4.99159459
O        4.48034902      -0.00000000       3.16077331
O        0.00000009       4.56151658       5.05405238
O        2.89706828       4.26608806       0.93771481
O        4.24069634       2.93728008       7.31506486
O        1.55344022       2.93728008       7.31506486
O        2.89706828       1.60847211       0.93771481
O        0.00000009       1.31304359       5.05405238
O        1.31378754      -0.00000000       3.16077331
O        4.24018285      -0.00000000       7.09973932
O        0.00000014       4.25092177       1.12472346
O        2.89706828       4.54303543       5.24080142
O        4.48450480       2.93728008       3.01583726
O        1.30963176       2.93728008       3.01583726
O        2.89706828       1.33152474       5.24080142
O        0.00000014       1.62363839       1.12472346
O        1.55395371      -0.00000000       7.09973932
Mg       5.79413589      -0.00000000       0.04751378
Mg       5.79413603       2.93728008       6.13091088
V        7.35914172      -0.00000000       4.99159774
V        5.79413890       1.46167956       3.08766276
V        8.69120484       1.46940880       7.20510341
V        7.35963039       2.93728008       1.19449490
V       10.02277928       2.93728008       1.19449490
V        8.69120484       4.40515137       7.20510341
V        5.79413890       4.41288060       3.08766276
V       10.02326795      -0.00000000       4.99159774
O       10.27448381      -0.00000000       3.16077393
O        5.79413647       4.56151658       5.05405238
O        8.69120484       4.26608904       0.93771399
O       10.03483342       2.93728008       7.31506425
O        7.34757625       2.93728008       7.31506425
O        8.69120484       1.60847112       0.93771399
O        5.79413647       1.31304359       5.05405238
O        7.10792586      -0.00000000       3.16077393
O       10.03432001      -0.00000000       7.09974017
O        5.79413641       4.25092177       1.12472346
O        8.69120484       4.54303450       5.24080249
O       10.27863985       2.93728008       3.01583673
O        7.10376982       2.93728008       3.01583673
O        8.69120484       1.33152567       5.24080249
O        5.79413641       1.62363839       1.12472346
O        7.34808966      -0.00000000       7.09974017
51
Lattice="11.57009542699887 2.4977072393921833e-16 7.596228636184569e-10 -1.1700210246287765e-16 5.842741421558266 3.761140807888036e-14 4.902497979887909e-10 3.848197902038419e-14 8.184474323230944" Properties=species:S:1:pos:R:3 volume=553.2792691300533 potential_energy=-560.368890978688 energy=-560.368890978688 state=5 converged=T pbc="T T T"
Mg      -0.00000001      -0.00000000       0.06178019
V        1.58297414      -0.00000000       4.91816746
V       -0.00000001       1.58610362       3.26856789
V        2.81675096       1.50636186       7.15532848
V        1.51613396       2.92137071       1.04741020
V        4.20616756       2.92137071       1.19287771
V        2.81675096       4.33637956       7.15532848
V       -0.00000001       4.25663780       3.26856789
V        4.23786794      -0.00000000       4.98657973
O        4.46534805      -0.00000000       3.12491794
O       -0.00000001       4.56703546       5.02747807
O        2.90006019       4.25438515       0.94128013
O        4.22069532       2.92137071       7.26733519
O        1.54825354       2.92137071       7.25282135
O        2.90006019       1.58835627       0.94128013
O       -0.00000001       1.27570597       5.02747807
O        1.28160234      -0.00000000       3.16361904
O        4.19428680       0.00000000       7.03934127
O       -0.00000001       4.22511442       1.16130278
O        2.87211799       4.51811170       5.19611840
O        4.48113581       2.92137071       2.99708788
O        1.30561589       2.92137071       3.01131184
O        2.87211799       1.32462972       5.19611840
O       -0.00000001       1.61762700       1.16130278
O        1.56205888       0.00000000       7.06591341
Mg       5.78504770      -0.00000000      -0.00483148
Mg       5.78504770       2.92137071       6.10550624
V        7.33222747      -0.00000000       4.98657973
V        5.78504770       1.42824564       3.04225640
V        8.75334445       1.50636186       7.15532848
V        7.36392784       2.92137071       1.19287771
V       10.05396145       2.92137071       1.04741020
V        8.75334445       4.33637956       7.15532848
V        5.78504770       4.41449578       3.04225640
V        9.98712127      -0.00000000       4.91816746
O       10.28849307      -0.00000000       3.16361904
O        5.78504770       4.52993098       5.02078394
O        8.67003522       4.25438515       0.94128013
O       10.02184186       2.92137071       7.25282135
O        7.34940009       2.92137071       7.26733519
O        8.67003522       1.58835627       0.94128013
O        5.78504770       1.31281044       5.02078394
O        7.10474736      -0.00000000       3.12491794
O       10.00803652       0.00000000       7.06591341
O        5.78504770       4.23198010       1.09962367
O        8.69797742       4.51811170       5.19611840
O       10.26447951       2.92137071       3.01131184
O        7.08895959       2.92137071       2.99708788
O        8.69797742       1.32462972       5.19611840
O        5.78504770       1.61076132       1.09962367
O        7.37580860       0.00000000       7.03934127
50
Lattice="11.580960724601463 2.31099103515845e-14 3.130011623016853e-11 1.1512053350254322e-14 5.790514540916264 -1.8916341909728737e-13 -1.8738257421028612e-11 -3.0048210477924813e-13 8.107501142168134" Properties=species:S:1:pos:R:3 volume=543.686768440567 potential_energy=-551.7718778692672 energy=-551.7718778692672 state=6 converged=T pbc="T T T"
Mg      -0.00000001       0.00000000       0.00348000
V        1.57178199      -0.00000000       4.88952453
V       -0.00000001       1.57179355       3.22492046
V        2.89524017       1.52780331       7.09823617
V        1.52779494       2.89525727       1.01620639
V        4.26268540       2.89525727       1.01620639
V        2.89524017       4.26271123       7.09823617
V       -0.00000001       4.21872099       3.22492046
V        4.21869835       0.00000000       4.88952453
O        4.51254976      -0.00000000       3.12398932
O       -0.00000001       4.51257873       4.99045691
O        2.89524017       4.23442336       0.95059214
O        4.23440107       2.89525727       7.16385318
O        1.55607927       2.89525727       7.16385318
O        2.89524017       1.55609118       0.95059214
O       -0.00000001       1.27793582       4.99045691
O        1.27793058       0.00000000       3.12398932
O        4.19070258       0.00000000       6.98167449
O       -0.00000001       4.19072491       1.13277208
O        2.89524017       4.47641370       5.13328694
O        4.47638365       2.89525727       2.98115829
O        1.31409669       2.89525727       2.98115829
O        2.89524017       1.31410084       5.13328694
O       -0.00000001       1.59978963       1.13277208
O        1.59977776      -0.00000000       6.98167449
Mg       5.79048035      -0.00000000       0.00348000
V        7.36226236       0.00000000       4.88952453
V        5.79048035       1.57179355       3.22492046
V        8.68572053       1.52780331       7.09823617
V        7.31827530       2.89525727       1.01620639
V       10.05316576       2.89525727       1.01620639
V        8.68572053       4.26271123       7.09823617
V        5.79048035       4.21872099       3.22492046
V       10.00917871      -0.00000000       4.88952453
O       10.30303012       0.00000000       3.12398932
O        5.79048035       4.51257873       4.99045691
O        8.68572053       4.23442336       0.95059214
O       10.02488143       2.89525727       7.16385318
O        7.34655963       2.89525727       7.16385318
O        8.68572053       1.55609118       0.95059214
O        5.79048035       1.27793582       4.99045691
O        7.06841094      -0.00000000       3.12398932
O        9.98118294      -0.00000000       6.98167449
O        5.79048035       4.19072491       1.13277208
O        8.68572053       4.47641370       5.13328694
O       10.26686401       2.89525727       2.98115829
O        7.10457705       2.89525727       2.98115829
O        8.68572053       1.31410084       5.13328694
O        5.79048035       1.59978963       1.13277208
O        7.39025813       0.00000000       6.98167449
49
Lattice="11.510747510510091 -0.018973537600614567 6.80989717156044e-08 -0.009502093822226264 5.788694979369823 -8.221499115141937e-08 1.899835929726531e-07 -7.403843990491062e-08 8.154324460226228" Properties=species:S:1:pos:R:3 volume=543.3391597279538 potential_energy=-542.8641138700341 energy=-542.8641138700341 state=7 converged=T pbc="T T T"
V        1.53909258       0.03629836       4.87808224
V       -0.06928265       1.56526645       3.18823780
V        3.10126795       1.66847242       7.02893739
V        1.36765306       2.61756245       0.89612218
V        4.22090492       3.00094673       1.16208583
V        2.57268788       4.55406311       7.25814251
V        0.05978058       4.22342796       3.18823822
V        4.22988287      -0.10431499       4.96976073
O        4.46483281      -0.04425277       3.16887796
O        0.01590964       4.50025572       4.96507144
O        2.82576427       4.18290901       0.93513084
O        4.18194190       3.00431140       7.23996604
O        1.58270896       2.93324984       7.20887943
O        2.89802039       1.58887547       0.86236883
O       -0.02541125       1.28843913       4.96507136
O        1.28749170       0.02389432       3.11341974
O        4.15273499       0.03982673       7.07370012
O        0.04312637       4.18299393       1.07611026
O        2.82441119       4.49176568       5.26999490
O        4.42665164       2.90261217       3.04116282
O        1.29617348       2.85025667       2.89581549
O        2.91160080       1.30675547       5.16394775
O       -0.05262858       1.60570092       1.07611001
O        1.55709176       0.12384049       7.01777217
Mg       5.75537374      -0.00948659       0.05048798
V        7.28086519       0.08534052       4.96976042
V        5.72222713       1.51909399       3.25436463
V        8.92855784       1.21565822       7.25814260
V        7.28034043       2.76877467       1.16208589
V       10.13359224       3.15215896       0.89612235
V        8.39997769       4.10124887       7.02893746
V        5.77901819       4.25062822       3.25436361
V        9.97165534      -0.05527154       4.87808261
O       10.22325603      -0.04286836       3.11341997
O        5.77882756       4.49643978       5.06347682
O        8.60322488       4.18084593       0.86236892
O        9.91853673       2.83647149       7.20887957
O        7.31930381       2.76540982       7.23996612
O        8.67548105       1.58681243       0.93513099
O        5.72241825       1.27328164       5.06347707
O        7.04591491       0.02527981       3.16887788
O        9.95365607      -0.14281418       7.01777229
O        5.77735260       4.18013617       1.18078046
O        8.58964502       4.46296571       5.16394777
O       10.20507198       2.91946440       2.89581568
O        7.07459371       2.86710952       3.04116280
O        8.67683457       1.27795557       5.26999507
O        5.72389276       1.58958555       1.18078067
O        7.35801286      -0.05880048       7.07370013
