32
Lattice="5.78497427540465 1.1875844942060056e-12 -8.177725061934772e-17 -2.8924871377012984 5.009934682740655 8.018083397794496e-17 -1.4786161661769254e-16 8.157890198744613e-17 10.3616199824706" Properties=species:S:1:pos:R:3 volume=300.30402707319854 potential_energy=-280.39225147944984 energy=-280.39225147944984 state=0 removed_atom="_JSON [-1]" pbc="T T T"
Na      -0.00000000       1.66997823       7.77121499
Na       1.44624357       0.83498911       2.59040500
Co       0.00000000       0.00000000       0.00000000
Co      -0.00000000       0.00000000       5.18080999
O        1.44624357       0.83498911       9.37974422
O        0.00000000       1.66997823       0.98187576
O        0.00000000       1.66997823       4.19893423
O        1.44624357       0.83498911       6.16268575
Na      -1.44624357       4.17494557       7.77121499
Na       0.00000000       3.33995646       2.59040500
Co      -1.44624357       2.50496734       0.00000000
Co      -1.44624357       2.50496734       5.18080999
O        0.00000000       3.33995646       9.37974422
O       -1.44624357       4.17494557       0.98187576
O       -1.44624357       4.17494557       4.19893423
O        0.00000000       3.33995646       6.16268575
Na       2.89248714       1.66997823       7.77121499
Na       4.33873071       0.83498911       2.59040500
Co       2.89248714       0.00000000       0.00000000
Co       2.89248714       0.00000000       5.18080999
O        4.33873071       0.83498911       9.37974422
O        2.89248714       1.66997823       0.98187576
O        2.89248714       1.66997823       4.19893423
O        4.33873071       0.83498911       6.16268575
Na       1.44624357       4.17494557       7.77121499
Na       2.89248714       3.33995646       2.59040500
Co       1.44624357       2.50496734       0.00000000
Co       1.44624357       2.50496734       5.18080999
O        2.89248714       3.33995646       9.37974422
O        1.44624357       4.17494557       0.98187576
O        1.44624357       4.17494557       4.19893423
O        2.89248714       3.33995646       6.16268575
