31
Lattice="5.731669481035602 1.9023250100429056e-11 -3.8438242593217016e-17 -2.8658347405013265 4.963771376682466 -2.406751560614554e-17 -6.90957427561853e-17 -9.010324724139534e-17 10.457062818281718" Properties=species:S:1:pos:R:3 volume=297.5107248182833 potential_energy=-274.37429866870866 energy=-274.37429866870866 state=1 pbc="T T T"
Na      -0.00000000       1.65459046       7.84279711
Na       1.43179978       0.82794047       2.61426570
Co      -0.00000000      -0.00325999       0.00145575
Co      -0.00000000      -0.00325999       5.22707566
O        1.42679527       0.83082983       9.45247856
O       -0.00000000       1.65459046       0.97461255
O       -0.00000000       1.65459046       4.25391886
O        1.42679527       0.83082983       6.23311566
Na      -1.43523404       4.13513862       7.84279711
Na      -0.00000000       3.30789044       2.61426570
Co      -1.43574060       2.48351568       0.00145575
Co      -1.43574060       2.48351568       5.22707566
O       -0.00000000       3.30211172       9.45247856
O       -1.41772990       4.14524464       0.94435782
O       -1.41772990       4.14524464       4.28417359
O       -0.00000000       3.30211172       6.23311566
Na       2.86583474       1.65726551       7.84279711
Na       4.29986970       0.82794047       2.61426570
Co       2.86583474       0.00000000      -0.02442702
Co       2.86583474       0.00000000       5.25295843
O        4.30487421       0.83082983       9.45247856
O        2.86583474       1.63705348       0.94435782
O        2.86583474       1.63705348       4.28417359
O        4.30487421       0.83082983       6.23311566
Na       1.43523403       4.13513862       7.84279711
Co       1.43574060       2.48351568       0.00145575
Co       1.43574060       2.48351568       5.22707566
O        2.86583474       3.30918092       9.46109525
O        1.41772990       4.14524464       0.94435782
O        1.41772990       4.14524464       4.28417359
O        2.86583474       3.30918092       6.22449898
