30
Lattice="5.682381509404411 -0.020652906517325535 -2.88345167985415e-16 -2.8590766964083576 4.952066100915274 -9.484071981301307e-16 -5.236034563096846e-16 7.322630370712449e-16 10.577292420569972" Properties=species:S:1:pos:R:3 volume=297.0154546317063 potential_energy=-267.7063910209997 energy=-267.7063910209997 state=2 pbc="T T T"
Na      -0.00088934       1.65017524       7.93296932
Na       1.39886802       0.80763683       2.64432311
Co      -0.00263572      -0.00152175      -0.00289508
Co      -0.00263572      -0.00152175       5.29154129
O        1.41446052       0.81663916       9.54426580
O        0.00790021       1.65524989       0.92669069
O        0.00790021       1.65524989       4.36195552
O        1.41446052       0.81663916       6.32167283
Na      -1.43042769       4.12620829       7.93296932
Na      -0.03067033       3.28366988       2.64432311
Co      -1.43217409       2.47451133      -0.00289508
Co      -1.43217409       2.47451133       5.29154129
O       -0.01507783       3.29267221       9.54426580
O       -1.42163813       4.13128294       0.92669068
O       -1.42163813       4.13128294       4.36195553
O       -0.01507783       3.29267221       6.32167283
Na       2.84577512       1.64300903       7.93296932
Co       2.84366494      -0.00889798      -0.03091494
Co       2.84366494      -0.00889798       5.31956115
O        4.26754913       0.81318194       9.55290878
O        2.81722527       1.62652577       0.89695699
O        2.81722527       1.62652577       4.39168922
O        4.26754913       0.81318194       6.31302985
Na       1.41623677       4.11904208       7.93296932
Co       1.41412661       2.46713508      -0.03091495
Co       1.41412661       2.46713508       5.31956116
O        2.83801078       3.28921499       9.55290879
O        1.38768692       4.10255882       0.89695699
O        1.38768692       4.10255882       4.39168922
O        2.83801078       3.28921499       6.31302984
