29
Lattice="5.620318966557106 -0.02227646354445152 7.77923393088858e-17 -2.829451466614587 4.90075369772661 5.845160678025088e-17 1.3867124980955992e-16 4.449101983175718e-16 10.708959852083671" Properties=species:S:1:pos:R:3 volume=294.29044962628865 potential_energy=-261.8072168432424 energy=-261.8072168432424 state=3 pbc="T T T"
Na      -0.00007907       1.63353891       8.03171989
Na       1.37831492       0.79210133       2.67723996
Co       0.00017369      -0.00253639      -0.00626648
Co       0.00017369      -0.00253639       5.36074641
O        1.39876821       0.82255209       9.70748620
O        0.00091394       1.63411223       0.95156982
O        0.00091394       1.63411223       4.40291010
O        1.39876821       0.82255209       6.35595358
Na      -0.03958840       3.24798192       2.67723996
Co      -1.41683546       2.45179546      -0.00626648
Co      -1.41683546       2.45179546       5.36074641
O       -0.00299062       3.25046961       9.70748620
O       -1.40964003       4.08689765       0.94316644
O       -1.40964003       4.08689765       4.41131349
O       -0.00299062       3.25046961       6.35595358
Na       2.81860563       1.62825575       8.03171989
Co       2.80935009      -0.01160553      -0.03464946
Co       2.80935009      -0.01160553       5.38912939
O        4.22089195       0.80334854       9.68678016
O        2.79302058       1.60495270       0.92270272
O        2.79302058       1.60495270       4.43177720
O        4.22089195       0.80334854       6.37665962
Na       1.40468792       4.07723306       8.03171989
Co       1.39861430       2.44107491      -0.00778727
Co       1.39861430       2.44107491       5.36226720
O        2.79543267       3.24752837       9.71611850
O        1.37171437       4.06672727       0.92270272
O        1.37171437       4.06672727       4.43177720
O        2.79543267       3.24752837       6.34732127
