28
Lattice="5.6163380048483615 4.769358742804514e-06 -2.3641288786334475e-16 -2.808173134145562 4.865826079806903 -9.472066099383613e-17 -4.1603819716328e-16 -6.555996944043781e-16 10.978817896660795" Properties=species:S:1:pos:R:3 volume=300.03064320306015 potential_energy=-254.44864778594183 energy=-254.44864778594183 state=4 pbc="T T T"
Na      -0.00708535       1.62987394       8.23411342
Na       1.40324298       0.78769322       2.74470447
Co       0.00128055      -0.00160129      -0.07361407
Co       0.00128055      -0.00160129       5.56302302
O        1.40324363       0.82713139       9.91257070
O        0.01199265       1.60758090       0.86661615
O        0.01199265       1.60758090       4.62279280
O        1.40324363       0.82713139       6.55565614
Co      -1.40492136       2.43568499      -0.03930588
Co      -1.40492136       2.43568499       5.52871483
O        0.00289288       3.23338657       9.92385108
O       -1.40492918       4.07495509       0.85850124
O       -1.40492918       4.07495509       4.63090770
O        0.00289288       3.23338657       6.54437576
Na       2.81357024       1.62987608       8.23411342
Co       2.80520713      -0.00160639      -0.07361768
Co       2.80520713      -0.00160639       5.56302663
O        4.21141165       0.82033464       9.89293496
O        2.79449281       1.60758395       0.86662008
O        2.79449281       1.60758395       4.62278887
O        4.21141165       0.82033464       6.57529189
Na       1.40324013       4.05852196       8.23411342
Co       1.40323502       2.43563477      -0.04384348
Co       1.40323502       2.43563477       5.53325243
O        2.80358975       3.23338825       9.92384748
O        1.40324093       4.06353449       0.83538811
O        1.40324093       4.06353449       4.65402084
O        2.80358975       3.23338825       6.54437936
