27
Lattice="5.554317786877758 0.02541723298050626 -1.0235527780288772e-16 -2.7551469239815196 4.8228889206195324 -6.409163808238444e-16 -1.5953506226010067e-16 2.0458299804979814e-15 11.216360148027421" Properties=species:S:1:pos:R:3 volume=301.24772137405773 potential_energy=-247.9889405435659 energy=-247.9889405435659 state=5 pbc="T T T"
Na      -0.05303045       1.64671919       8.41227011
Na       1.42585915       0.79288189       2.80409004
Co       0.00069493      -0.00194339      -0.04089139
Co       0.00069493      -0.00194339       5.64907147
O        1.37402179       0.82281020      10.18669249
O        0.02081169       1.60408642       0.90057037
O        0.02081169       1.60408642       4.70760970
O        1.37402179       0.82281020       6.63784773
Co      -1.37908757       2.41231863      -0.03650817
Co      -1.37908757       2.41231863       5.64468825
O        0.01693160       3.21359290      10.16881823
O       -1.35955113       4.03792485       0.89178984
O       -1.35955113       4.03792485       4.71639024
O        0.01693160       3.21359290       6.65572199
Co       2.77397468       0.01454702      -0.07434946
Co       2.77397468       0.01454702       5.68252954
O        4.17931593       0.82811067      10.16881823
O        2.77718215       1.60801370       0.89178984
O        2.77718215       1.60801370       4.71639024
O        4.17931593       0.82811067       6.65572199
Na       1.40685025       4.03606078       8.41227011
Co       1.40161592       2.42452294      -0.04089139
Co       1.40161592       2.42452294       5.64907147
O        2.78704266       3.23920632      10.19941975
O        1.39984221       4.04010687       0.86802334
O        1.39984221       4.04010687       4.74015673
O        2.78704266       3.23920632       6.62512047
