26
Lattice="5.546815562954422 0.001233150519027764 -2.824707604159585e-16 -2.772339841798674 4.804299762886283 -1.9463486852669916e-15 -4.989743836458758e-16 2.728904130828105e-15 11.581806740135852" Properties=species:S:1:pos:R:3 volume=308.67812105180843 potential_energy=-240.75268583892785 energy=-240.75268583892785 state=6 pbc="T T T"
Na      -0.03911226       1.62442578       8.68635506
Na       1.42381830       0.77980242       2.89545169
Co      -0.00250149      -0.00141026      -0.00000008
Co      -0.00250149      -0.00141026       5.79090345
O        1.36635344       0.81297978      10.60777771
O        0.01835252       1.59124847       0.97402929
O        0.01835252       1.59124847       4.81687408
O        1.36635344       0.81297978       6.76493240
Co      -1.38733744       2.40282395       0.03870305
Co      -1.38733744       2.40282395       5.75220032
O       -0.01170090       3.17877001      10.61999235
O       -1.37593289       4.02975793       0.96181406
O       -1.37593289       4.02975793       4.82908931
O       -0.01170090       3.17877001       6.75271776
Co       2.77204254       0.00140480      -0.03870276
Co       2.77204254       0.00140480       5.82960613
O        4.17530739       0.82474787      10.61999235
O        2.75621423       1.58071347       0.96181406
O        2.75621423       1.58071347       4.82908931
O        4.17530739       0.82474787       6.75271776
Co       1.38720844       2.40563793      -0.00000008
Co       1.38720844       2.40563793       5.79090345
O        2.78441998       3.19794729      10.65217202
O        1.37476170       4.01181387       0.92963500
O        1.37476170       4.01181387       4.86126837
O        2.78441998       3.19794729       6.72053809
