25
Lattice="5.563158021898309 3.534949308096891e-11 1.0985583818811289e-15 -2.7815790109162664 4.817836172250077 -4.1945355974000633e-16 2.1727566711175256e-15 -2.4054692273731643e-15 12.75082931182785" Properties=species:S:1:pos:R:3 volume=341.7526228958002 potential_energy=-232.67754009948442 energy=-232.67754009948442 state=7 pbc="T T T"
Na      -0.00280259       1.60756347       9.56312198
Co      -0.00280213       0.00037437      -0.25735930
Co      -0.00280213       0.00037437       6.63277396
O        1.36927097       0.81539642      11.49855515
O       -0.00280263       1.60756349       0.65753254
O       -0.00280263       1.60756349       5.71788212
O        1.36927097       0.81539642       7.62768882
Co      -1.39466944       2.41115817      -0.25735901
Co      -1.39466944       2.41115817       6.63277366
O       -0.00280258       3.19189760      11.49855479
O       -1.38172771       4.02333145       0.64438410
O       -1.38172771       4.02333145       5.73103056
O       -0.00280258       3.19189760       7.62768917
Co       2.77877593       0.00161836      -0.30145213
Co       2.77877593       0.00161836       6.67686678
O        4.18828183       0.81539639      11.49855479
O        2.77877643       1.59386365       0.64438410
O        2.77877643       1.59386365       5.73103056
O        4.18828183       0.81539639       7.62768917
Co       1.38906423       2.41115761      -0.25735930
Co       1.38906423       2.41115761       6.63277396
O        2.77877639       3.21350888      11.53286951
O        1.37612248       4.02333149       0.64438449
O        1.37612248       4.02333149       5.73103017
O        2.77877639       3.21350888       7.59337446
