24
Lattice="5.577005930827267 -3.740650874405122e-13 -4.030803189771646e-06 -2.7885029654138487 4.829828813151524 2.689260260183729e-06 -1.0642811173601672e-05 2.054007277512999e-06 13.938224437302049" Properties=species:S:1:pos:R:3 volume=375.43978953688236 potential_energy=-224.63570412749056 energy=-224.63570412749056 state=8 removed_atom="_JSON [-1]" pbc="T T T"
Co      -0.00000000       0.00000000      -0.00000340
Co      -0.00000532       0.00000103       6.96911575
O        1.39424017       0.80497365      13.00165333
O        0.00000067       1.60994281       0.93657389
O       -0.00000599       1.60994409       6.03253871
O        1.39424683       0.80497237       7.90568148
Co      -1.39425149       2.41491441      -0.00000206
Co      -1.39425680       2.41491543       6.96911709
O       -0.00001132       3.21988806      13.00165467
O       -1.39425082       4.02485722       0.93657524
O       -1.39425747       4.02485850       6.03254006
O       -0.00000465       3.21988677       7.90568282
Co       2.78850296       0.00000000      -0.00000542
Co       2.78849765       0.00000103       6.96911373
O        4.18274313       0.80497365      13.00165131
O        2.78850363       1.60994281       0.93657188
O        2.78849698       1.60994409       6.03253670
O        4.18274980       0.80497237       7.90567946
Co       1.39425148       2.41491441      -0.00000407
Co       1.39424616       2.41491543       6.96911508
O        2.78849165       3.21988806      13.00165265
O        1.39425215       4.02485722       0.93657322
O        1.39424549       4.02485850       6.03253804
O        2.78849832       3.21988677       7.90568081
