64
Lattice="6.335656958006312 1.382654622345901e-17 1.9524423132150526e-16 -4.2796696130168057e-17 10.641035019116496 -4.559114360975634e-14 1.285178580853329e-15 -8.046357633127381e-14 12.792334286888682" Properties=species:S:1:pos:R:3 volume=862.4329221139113 potential_energy=-623.2152236735556 energy=-623.2152236735556 state=0 removed_atom="_JSON [-1]" pbc="T T T"
K        1.45476017       8.47993331       7.98837418
K        4.62258864       3.15941580      11.20012725
K        1.71306831       8.47993331       1.59220703
K        4.88089679       3.15941580       4.80396011
K        4.38082933       0.58694723       1.34642344
K        1.95482763       5.90746474      11.44591085
K        5.12265611       0.58694723       7.74259058
K        1.21300085       5.90746474       5.04974371
V        3.13681012       0.03521377       4.97129431
V        3.19884683       5.35573127       7.82103998
V        0.03101836       0.03521377      11.36746145
V        6.30463860       5.35573127       1.42487283
V        1.58602076       2.69543721       3.16973554
V        4.74963619       8.01595472       9.62259875
V        1.58180772       2.69543721       9.56590268
V        4.75384924       8.01595472       3.22643161
P        2.05940539       2.69822235       6.40111524
P        4.27625157       8.01873986       6.39121904
P        1.10842309       2.69822235      12.79728239
P        5.22723387       8.01873986      -0.00494810
P        3.15704177       5.37503103       2.33987697
P        3.17861518       0.05451352      10.45245731
P        0.01078671       5.37503103       8.73604412
P        6.32487025       0.05451352       4.05629017
O        3.02755668       1.51238992       6.24503449
O        3.30810028       6.83290743       6.54729980
O        0.14027180       1.51238992      12.64120164
O        6.19538516       6.83290743       0.15113265
O        2.94455143       3.95587537       6.52215492
O        3.39110553       9.27639288       6.27017937
O        0.22327705       3.95587537       0.12598778
O        6.11237991       9.27639288      12.66634651
O        1.19053765       2.87212740       5.15038691
O        5.14511931       8.19264491       7.64194737
O        1.97729083       2.87212740      11.54655406
O        4.35836613       8.19264491       1.24578023
O        1.17290378       2.50672310       7.62804332
O        5.16275318       7.82724061       5.16429097
O        1.99492470       2.50672310       1.23187617
O        4.34073225       7.82724061      11.56045811
O        1.95314641       5.66568984       1.43609070
O        4.38251055       0.34517233      11.35624359
O        1.21468207       5.66568984       7.83225784
O        5.12097489       0.34517233       4.96007644
O        4.37488194       5.08108268       1.47026329
O        1.96077502      10.40160019      11.32207100
O        5.12860350       5.08108268       7.86643043
O        1.20705346      10.40160019       4.92590386
O        3.40097128       6.59825394       3.25071392
O        2.93468567       1.27773643       9.54162036
O        6.10251415       6.59825394       9.64688107
O        0.23314281       1.27773643       3.14545322
O        2.84928870       4.19453006       3.28203940
O        3.48636826       9.51504757       9.51029489
O        0.31853978       4.19453006       9.67820654
O        6.01711718       9.51504757       3.11412774
F        3.33045766       9.37407839       3.47589665
F        3.00519930       4.05356088       9.31643764
F        6.17302777       9.37407839       9.87206379
F        0.16262918       4.05356088       2.92027050
F        3.05081027       1.41841652       3.52481082
F        3.28484669       6.73893403       9.26752347
F        0.11701821       1.41841652       9.92097796
F        6.21863875       6.73893403       2.87135633
