63
Lattice="6.307604046415143 -0.01067670373464144 -0.018036718382643303 -0.017993881343090715 10.616797850892482 -0.0007174625472684915 -0.036280203540863885 -0.0008088254749372001 12.761531372493547" Properties=species:S:1:pos:R:3 volume=854.5864158762688 potential_energy=-614.0155046170765 energy=-614.0155046170765 state=1 pbc="T T T"
K        1.35721012       8.40467537       7.81589986
K        4.55018703       3.12107167      11.16225426
K        1.66874914       8.37187135       1.68670284
K        5.25642239       4.76581404       5.08281192
K        4.35102424       0.62619028       1.36473730
K        1.91257851       5.90056470      11.42484531
K        5.11987994       0.69203574       7.63807419
V        3.11313401       0.02264766       4.95153501
V        3.08409220       5.31905007       7.75372741
V       -0.00215524       0.00096952      11.33998905
V        6.23351590       5.28521355       1.40093674
V        1.55758215       2.67189861       3.19148621
V        4.66781974       7.97490892       9.56759080
V        1.53360750       2.67430452       9.53422942
V        4.71868109       7.95782181       3.20077839
P        2.04768438       2.66284899       6.36996720
P        4.21013963       7.97006720       6.35106749
P        1.06431687       2.66674391      12.76333119
P        5.18115796       7.96693899      -0.02282720
P        3.12340880       5.29861036       2.33205819
P        3.13218434       0.03062003      10.39116868
P       -0.05472451       5.34057680       8.73350176
P        6.28670322       0.02168756       4.02166775
O        2.95329959       1.42490961       6.24106110
O        3.27442822       6.75993963       6.50086769
O        0.09608420       1.48103772      12.60112323
O        6.13641882       6.77078291       0.13898988
O        2.98359967       3.87648622       6.52460219
O        3.32451362       9.22139652       6.22250242
O        0.21340453       3.92881338       0.10666777
O        6.04744608       9.21243293      12.61657805
O        1.16994239       2.83615999       5.13534534
O        5.06423355       8.15461638       7.61015625
O        1.93067638       2.83875050      11.50981559
O        4.30972942       8.14857017       1.22393321
O        1.15727683       2.50747842       7.60934135
O        5.10026454       7.77535960       5.13148993
O        1.97703995       2.48281294       1.22952883
O        4.26364427       7.78407396      11.50564147
O        1.90148098       5.61448741       1.46359917
O        4.33556248       0.29809632      11.30456309
O        1.13819187       5.60107038       7.80885576
O        5.07168430       0.28594479       4.91296068
O        4.31370753       5.01677392       1.40167615
O        1.89486006      10.36491888      11.26404423
O        5.02060407       5.05607739       7.86223163
O        1.17350132      10.35046765       4.92014540
O        3.44000724       6.50876784       3.23260953
O        2.90148952       1.26878960       9.49945515
O        6.02767003       6.55978885       9.61915186
O        0.25136428       1.23085241       3.11529934
O        2.86110700       4.10465300       3.25686924
O        3.40545799       9.46889272       9.44516025
O        0.24820726       4.15410851       9.66799529
O        5.97042973       9.44805165       3.08176459
F        3.30436244       9.32698748       3.47308103
F        2.92773766       4.05564046       9.29022317
F        6.10282335       9.31197144       9.82443984
F        0.11418651       3.95966793       2.85004726
F        2.97241801       1.35042298       3.50990300
F        3.19652659       6.71004263       9.19754066
F        0.08301152       1.38569891       9.89352975
F        6.13000444       6.63264379       2.85311927
