62
Lattice="6.2576666464670065 -5.193199250691364e-05 -0.00024261422950277553 -0.000312460990407156 10.590732495751773 0.0009201368578257836 -0.0011048201744566944 0.0011687676462884232 12.748220898465602" Properties=species:S:1:pos:R:3 volume=844.8663204713356 potential_energy=-604.7543977464636 energy=-604.7543977464636 state=2 pbc="T T T"
K        1.40520235       8.32470338       7.91828760
K        4.12068116       4.76711633      11.45157436
K        1.72462792       8.32376335       1.54471855
K        5.26632655       4.76614250       5.07761175
K        4.28093962       0.79930474       1.29352752
K        5.10698859       0.79906065       7.66800878
V        3.09758460      -0.01000670       4.95962809
V        3.11999635       5.26467175       7.74620255
V        0.03261125      -0.00960936      11.33403237
V        6.26727246       5.26384272       1.37214360
V        1.56490026       2.65115686       3.19061389
V        4.66367947       7.93042347       9.57214799
V        1.56498374       2.65174925       9.56471457
V        4.72365134       7.92982145       3.19804972
P        2.04319354       2.64022029       6.36673297
P        4.22081633       7.93245242       6.35657256
P        1.08610732       2.64102612      12.74090261
P        5.16689954       7.93185491      -0.01754098
P        3.14582877       5.26557162       2.37143209
P        3.14212765       0.01421645      10.38025780
P       -0.01615661       5.26630733       8.74560654
P        6.24567596       0.01366130       4.00597507
O        2.95055409       1.40356864       6.22468549
O        3.29599253       6.70972947       6.51251316
O        0.17938861       1.40385232      12.59895743
O        6.09134611       6.70885024       0.13846858
O        2.98594163       3.85842752       6.50223280
O        3.31232610       9.16965243       6.22538353
O        0.14385071       3.85753958       0.12822924
O        6.07469221       9.16992908      12.59947070
O        1.16362654       2.81435122       5.13373439
O        5.07111454       8.12358259       7.61412225
O        1.96573349       2.81536270      11.50798288
O        4.31645848       8.12314684       1.23986813
O        1.17243887       2.49162779       7.61082400
O        5.10344339       7.74575028       5.13176956
O        1.95792077       2.49153402       1.23685227
O        4.28337183       7.74646756      11.50569569
O        1.93341519       5.54688086       1.47771815
O        4.35590895       0.24892049      11.28498532
O        1.19616241       5.54773909       7.85176502
O        5.03196135       0.24851427       4.91075207
O        4.35107374       5.00874698       1.45460557
O        1.92923671      10.32558432      11.27332944
O        5.03617787       5.00963378       7.82858612
O        1.20034049      10.32519661       4.89920318
O        3.43627508       6.48437351       3.26187139
O        2.89026181       1.22860054       9.47620738
O        5.95104539       6.48483466       9.63609780
O        0.23979056       1.22786624       3.10182671
O        2.89643527       4.06284720       3.28450528
O        3.41146080       9.41380082       9.44280217
O        0.23332154       4.06331737       9.65829409
O        5.97580242       9.41302788       3.06877236
F        3.29400254       9.27254675       3.48597633
F        2.97266349       3.96706318       9.21389417
F        6.09336027       9.27310037       9.85999630
F        0.15700084       3.96630772       2.84002954
F        2.96108336       1.31336408       3.51318479
F        3.24997202       6.61450770       9.19751212
F        0.16900722       1.31384696       9.88759572
F        6.13726006       6.61377943       2.82348062
