61
Lattice="6.199289545165182 0.01702313264290844 -0.028053253843970706 0.02887089219706551 10.561312436968164 0.004692083994875976 -0.05807912238546269 0.00563591426192291 12.723877591555524" Properties=species:S:1:pos:R:3 volume=833.0421435174212 potential_energy=-595.2293278605707 energy=-595.2293278605707 state=3 pbc="T T T"
K        0.93168086       9.98544211       7.61243046
K        3.99543465       4.76482678      11.39093232
K        1.74728506       8.28425896       1.55373135
K        5.24715264       4.68893305       5.10177041
K        4.24440708       0.74293808       1.25857273
V        3.17024533       0.01541241       5.00212153
V        3.00588007       5.29024413       7.71949413
V       -0.01558761      -0.03070708      11.30265829
V        6.23606578       5.24773584       1.32959897
V        1.58426698       2.61150292       3.16165470
V        4.58498542       7.88596916       9.53914963
V        1.47704414       2.60417486       9.50197701
V        4.72199008       7.89091577       3.21421436
P        2.02707684       2.63545899       6.33584528
P        4.15386144       7.90071496       6.37249114
P        1.03803503       2.61937690      12.68488924
P        5.14019733       7.92224823      -0.01903318
P        3.14925357       5.23587827       2.36526379
P        3.04838003      -0.02359909      10.32296921
P       -0.08178294       5.23467489       8.75801167
P        6.24569876       0.00192968       3.95908648
O        2.95338129       1.40337334       6.21084828
O        3.22118728       6.67491274       6.50060723
O        0.11069717       1.39646944      12.54625416
O        6.08094277       6.71002401       0.12703294
O        2.92068680       3.88154617       6.47106851
O        3.26035785       9.14552384       6.22639476
O        0.17161526       3.84604352       0.10039911
O        5.97390599       9.18229569      12.57801007
O        1.16532989       2.78118493       5.08761563
O        5.01594130       8.04916130       7.62133855
O        1.90612505       2.77659989      11.44146052
O        4.31027643       8.10212618       1.25193248
O        1.14757523       2.45159885       7.56487878
O        5.03521413       7.71082110       5.14390791
O        1.97146000       2.45575384       1.19941507
O        4.19333883       7.73909870      11.48918170
O        1.93849828       5.50725072       1.46500614
O        4.26887785       0.25402482      11.19890841
O        1.12647543       5.50260155       7.85626697
O        5.04870070       0.21779109       4.89703883
O        4.34526003       5.00322673       1.42669074
O        1.88708453      10.27929899      11.27363935
O        4.90920839       5.01564360       7.81608073
O        1.29867363      10.31607440       4.87574202
O        3.42381549       6.45241588       3.25602421
O        2.72522612       1.16268391       9.40922951
O        5.82299653       6.42181577       9.67181755
O        0.25712799       1.18384301       3.05876918
O        2.91946732       4.02254053       3.26189110
O        3.30716246       9.32196097       9.42547563
O        0.17021618       3.99558749       9.62987390
O        6.00655256       9.34401170       3.07009475
F        3.33378137       9.26538084       3.51320001
F        2.86108083       3.93572544       9.15509365
F        6.01624140       9.18638048       9.88097515
F        0.17658236       3.92221161       2.81190280
F        3.00203188       1.30147631       3.51854475
F        3.19041029       6.55369945       9.20474240
F        0.12109529       1.23748576       9.82369169
F        6.11682177       6.56803910       2.80909993
