60
Lattice="6.146964392785414 0.00014727279761978578 0.00025638579483550235 -0.00032242960561206055 10.529036044533965 6.0233335995870846e-05 0.0006386192338324131 3.536475521736254e-05 12.681485214395115" Properties=species:S:1:pos:R:3 volume=820.766134770881 potential_energy=-585.7002457715162 energy=-585.7002457715162 state=4 pbc="T T T"
K        0.89941260       9.90960726       7.60091570
K        3.97344311       4.64483255      11.42411890
K        2.17574929       9.90927922       1.26008599
K        5.24982654       4.64520618       5.08330350
V        3.17558130      -0.01387355       4.98820580
V        2.97389559       5.25064550       7.69592565
V       -0.09958464      -0.01378956      11.32889641
V        6.24905773       5.25085416       1.35526145
V        1.62158299       2.54506872       3.10814879
V        4.52773179       7.80967246       9.57602591
V        1.45443150       2.54508605       9.44891634
V        4.69488464       7.80966399       3.23525873
P        2.01723537       2.60273997       6.28581565
P        4.13209583       7.86732482       6.39835530
P        1.05908139       2.60265841      12.62652387
P        5.09021541       7.86722001       0.05765676
P        3.16994726       5.18847488       2.39698033
P        2.97953112      -0.07602750      10.28717751
P       -0.09403578       5.18836216       8.73758851
P        6.24351475      -0.07602089       3.94655023
O        2.97423654       1.39526522       6.17312262
O        3.17516203       6.65979390       6.51102780
O        0.10178169       1.39543451      12.51382512
O        6.04760640       6.66006611       0.17034977
O        2.87858543       3.87088761       6.41975650
O        3.27065626       9.13541345       6.26442205
O        0.19739423       3.87099774       0.07891529
O        5.95182800       9.13568315      12.60528535
O        1.16766383       2.71849020       5.02389178
O        4.98164819       7.98312932       7.66028347
O        1.90858483       2.71831250      11.36453266
O        4.24070192       7.98282362       1.31964381
O        1.12801701       2.40939284       7.50688394
O        5.02132797       7.67402992       5.17729087
O        1.94774419       2.40920160       1.16601764
O        4.20157772       7.67377070      11.51815825
O        1.96426492       5.46626542       1.49674990
O        4.18519774       0.20181857      11.18741545
O        1.11171550       5.46610664       7.83745648
O        5.03774915       0.20167515       4.84667250
O        4.36570749       4.97222121       1.46138346
O        1.78345661      10.23670413      11.22283752
O        4.85725447       4.97212310       7.80215340
O        1.29191252      10.23653875       4.88204179
O        3.46157168       6.34897375       3.34956022
O        2.68784010       1.08448423       9.33462771
O        5.76119034       6.34919581       9.69017754
O        0.38822551       1.08455183       2.99397323
O        2.92882355       3.93956230       3.24945632
O        3.22039774       9.20412631       9.43474589
O        0.14708759       3.93963326       9.59031348
O        6.00214409       9.20429881       3.09385365
F        3.31088641       9.13462986       3.57573390
F        2.83835499       3.87011261       9.10845386
F        5.91155247       9.13477996       9.91665270
F        0.23768061       3.87008843       2.76755463
F        2.99821872       1.21347391       3.46425083
F        3.15117793       6.47799470       9.21988869
F        0.07777340       1.21349449       9.80493774
F        6.07162191       6.47813502       2.87922378
