59
Lattice="6.132279687516908 -0.003145166384527782 0.003605751403799333 -0.005966042816436909 10.503228496382455 -0.0005575208960324413 0.0075518669148265105 -0.0007087226028037875 12.643839688512328" Properties=species:S:1:pos:R:3 volume=814.3731912164486 potential_energy=-575.6832170896066 energy=-575.6832170896066 state=5 pbc="T T T"
K        0.89571707       9.87618098       7.57127344
K        3.97695810       4.63228158      11.38697106
K        2.17689787       9.89445692       1.26533944
V        3.16756116      -0.00648413       4.98437300
V        3.02022342       5.21251518       7.61304419
V       -0.08536328      -0.02077932      11.30986780
V        6.22761044       5.22345349       1.37833634
V        1.58665464       2.56329561       3.13424289
V        4.52998067       7.77728697       9.53952574
V        1.46090424       2.54604105       9.42105851
V        4.67395875       7.77020048       3.24515646
P        1.99415326       2.57945433       6.27363422
P        4.12295894       7.85431547       6.37137443
P        1.06750225       2.59482458      12.60358593
P        5.06666185       7.82962939       0.05920100
P        3.14754569       5.17797738       2.41200789
P        2.98757680      -0.08139327      10.26070960
P       -0.05766535       5.18719316       8.69736779
P        6.22143502      -0.08027066       3.92727951
O        2.95724624       1.37014541       6.18287397
O        3.17018675       6.65467918       6.47125056
O        0.12130292       1.37575830      12.49659766
O        6.00143720       6.60618246       0.15862883
O        2.83937783       3.85390355       6.39537775
O        3.25658830       9.12610795       6.26035641
O        0.19021047       3.85687651       0.07959546
O        5.94771975       9.08954108      12.57218906
O        1.16745750       2.65036969       4.99978412
O        4.98157607       7.96329729       7.62833159
O        1.91827652       2.70298253      11.34092241
O        4.21973353       7.95370501       1.32214628
O        1.11371691       2.38056746       7.49874275
O        5.00598305       7.72826948       5.13773287
O        1.94266102       2.41054008       1.18704690
O        4.18355584       7.65525711      11.47777826
O        1.95052692       5.46197709       1.49439600
O        4.18779940       0.19968003      11.16515562
O        1.16117927       5.46951314       7.83697411
O        5.01795870       0.20899690       4.82430981
O        4.34527604       4.93407882       1.49522600
O        1.78619879      10.19106230      11.18976268
O        4.86458276       4.96628306       7.79153690
O        1.27621697      10.19259575       4.85361768
O        3.42736306       6.36474770       3.33405218
O        2.68701078       1.08050149       9.31270590
O        5.76719069       6.34858707       9.65902105
O        0.39424620       1.08362689       2.97082275
O        2.84960121       3.93590170       3.25514279
O        3.23647330       9.17727750       9.40175095
O        0.17646900       3.93988434       9.56688999
O        5.95353884       9.18546770       3.06302171
F        3.30276826       9.10754682       3.56427350
F        2.85415323       3.83590988       9.06189333
F        5.89905395       9.10664583       9.88682132
F        0.22833562       3.84775361       2.75541718
F        2.96549636       1.23430133       3.46367134
F        3.17681507       6.45628534       9.16355359
F        0.08931390       1.22031087       9.79388319
F        6.05272852       6.50755957       2.84019498
