58
Lattice="6.11437946632204 -0.0010850850178850768 -0.00044250918476542914 -0.0024207886788510757 10.493495895390296 4.224962143805436e-05 -0.0008124397179206776 1.7540975055137564e-05 12.600774418067513" Properties=species:S:1:pos:R:3 volume=808.480970220666 potential_energy=-565.5775013659993 energy=-565.5775013659993 state=6 pbc="T T T"
K        0.89470709       9.87139796       7.54383871
K        3.95250955       4.62468542      11.35947774
V        3.15312968      -0.01629951       4.93332749
V        3.01559717       5.20331123       7.56766205
V       -0.04007282      -0.04311485      11.33592181
V        6.20888083       5.22973057       1.36915994
V        1.57282168       2.54678641       3.10746265
V        4.52054100       7.78054772       9.50436472
V        1.46451177       2.53430503       9.39901169
V        4.62878165       7.79302957       3.19517720
P        1.97859092       2.56329217       6.25072050
P        4.11489074       7.84686175       6.33162200
P        1.05847257       2.60080481      12.57184827
P        5.03497056       7.80965080       0.05185612
P        3.13248578       5.17212723       2.42406841
P        3.00662719      -0.06869905      10.23722413
P       -0.05191486       5.17868736       8.66638806
P        6.19096973      -0.07506404       3.87834587
O        2.92039981       1.34051352       6.16796153
O        3.16982360       6.63571107       6.43227102
O        0.11395041       1.38921266      12.47124176
O        5.97624303       6.58643148       0.13453834
O        2.83747936       3.83231366       6.37448309
O        3.24136257       9.11216283       6.23167089
O        0.18525225       3.86569721       0.07117086
O        5.89364596       9.07826069      12.52879093
O        1.14701554       2.65140334       4.98476598
O        4.97076384       7.94983239       7.59416052
O        1.91445492       2.70397801      11.30944299
O        4.20325366       7.89794403       1.31765766
O        1.10207629       2.38392874       7.48630566
O        4.99376883       7.72130224       5.09873473
O        1.93802892       2.47536489       1.20412642
O        4.15775840       7.63054048      11.41688242
O        1.93322799       5.45840359       1.50379928
O        4.21979962       0.21651449      11.10259584
O        1.16112355       5.46407542       7.80084638
O        4.99185417       0.21128107       4.79880387
O        4.32452110       4.92455821       1.50003028
O        1.79596170      10.19283934      11.14246644
O        4.85408223       4.94576218       7.76092232
O        1.26633126      10.17200821       4.80270404
O        3.41379968       6.36319019       3.33965703
O        2.69348167       1.09805986       9.28450013
O        5.74942108       6.34401083       9.61908312
O        0.35779489       1.11678918       2.96284685
O        2.82408037       3.94020969       3.27269014
O        3.24913941       9.18151597       9.36187494
O        0.19317710       3.93508981       9.54134063
O        5.88003688       9.18625193       3.03011785
F        3.27800868       9.09759815       3.55103371
F        2.84233179       3.83418956       9.03332935
F        5.89849886       9.08030164       9.86984964
F        0.22192675       3.85126342       2.75185955
F        2.95478235       1.27201257       3.48093417
F        3.17276333       6.46186110       9.11215437
F        0.11690696       1.21550278       9.79139196
F        6.01066651       6.51813712       2.82153445
