57
Lattice="6.088354968646333 0.001720617439541528 -0.009697623590041265 0.0023969862561401445 10.484611217578223 -0.0008068113210260034 -0.01985888285051768 -0.0010283066834783636 12.574582051826859" Properties=species:S:1:pos:R:3 volume=802.6842322735864 potential_energy=-555.3775378066442 energy=-555.3775378066442 state=7 pbc="T T T"
K        0.87336449       9.89137262       7.54074292
V        3.12069366      -0.02353044       4.92961542
V        2.99799305       5.18818532       7.56700908
V       -0.03308807      -0.04545803      11.32442502
V        6.11213806       5.19491361       1.28551417
V        1.54631958       2.56130887       3.11099691
V        4.50245818       7.75927199       9.48683968
V        1.48827345       2.56353907       9.42312677
V        4.59068974       7.77893655       3.16422324
P        1.95683179       2.55933059       6.25483359
P        4.09828089       7.82301111       6.30439048
P        1.06015568       2.58211410      12.55671975
P        5.01327719       7.81267671       0.02976893
P        3.06897127       5.18063881       2.39801273
P        3.00384848      -0.06829763      10.20100823
P       -0.04749950       5.17517891       8.67677906
P        6.14547953      -0.07536006       3.85378539
O        2.88889984       1.32573873       6.16570367
O        3.17371258       6.59605099       6.39909062
O        0.12182226       1.35857877      12.47006402
O        5.93853166       6.58282830       0.10614011
O        2.82561017       3.82324812       6.36185416
O        3.21033430       9.08065810       6.20390027
O        0.19926545       3.84502077       0.07354686
O        5.88041445       9.06927789      12.49973009
O        1.12162950       2.64671002       4.98807293
O        4.95443810       7.94079097       7.56388448
O        1.89875202       2.66047581      11.29128393
O        4.17051689       7.90641407       1.28545047
O        1.09204300       2.38506761       7.49632307
O        4.97108124       7.71136147       5.06377698
O        1.93764096       2.45881520       1.22711230
O        4.13252790       7.69814417      11.35314979
O        1.85721892       5.45395912       1.50846324
O        4.21636934       0.20742017      11.07324580
O        1.15579649       5.45822148       7.78494100
O        4.95189399       0.20439651       4.78591054
O        4.27568865       4.93323934       1.49417983
O        1.80247058      10.17105167      11.11043461
O        4.83058061       4.92961735       7.77330401
O        1.25020097      10.15526605       4.78854258
O        3.35898905       6.38244724       3.30733345
O        2.69059892       1.10752588       9.26237273
O        5.74962451       6.37407860       9.58394567
O        0.33461195       1.12044026       2.95971392
O        2.78246532       3.95608696       3.27329617
O        3.25477792       9.18889426       9.30767629
O        0.23956758       3.93994126       9.54209904
O        5.83963672       9.17996948       3.00212125
F        3.25369411       9.09828285       3.52755541
F        2.83509244       3.83288971       9.00637162
F        5.87725943       9.07598015       9.83762853
F        0.18534404       3.83629936       2.72332107
F        2.92475407       1.28237279       3.49185112
F        3.15235841       6.50265361       9.04983960
F        0.13981315       1.22653341       9.79008416
F        5.94364778       6.49742615       2.76422775
