56
Lattice="6.0501140201560935 1.669332771909744e-16 -9.325289368625477e-16 1.7490286583571056e-15 10.46549417474683 -3.189578132200677e-13 -1.8729233621363872e-16 -3.4404748267097527e-13 12.555471225723679" Properties=species:S:1:pos:R:3 volume=794.9802085513222 potential_energy=-545.0675274722248 energy=-545.0675274722248 state=8 removed_atom="_JSON [-1]" pbc="T T T"
V        3.02520295       0.04808269       5.00307256
V        3.02491107       5.28082977       7.55239865
V       -0.00014594       0.04808269      11.28080818
V        6.05025996       5.28082977       1.27466304
V        1.51263468       2.66431798       3.13872842
V        4.53747934       7.89706507       9.41674280
V        1.51242233       2.66431798       9.41646403
V        4.53769169       7.89706507       3.13900719
P        1.94153691       2.66444217       6.27761247
P        4.10857712       7.89718927       6.27785876
P        1.08352010       2.66444217      12.55534808
P        4.96659392       7.89718927       0.00012315
P        3.02519868       5.28073147       2.40323281
P        3.02491534       0.04798438      10.15223841
P       -0.00014167       5.28073147       8.68096842
P        6.05025569       0.04798438       3.87450280
O        2.85515336       1.41878189       6.18051843
O        3.19496067       6.65152896       6.37495281
O        0.16990365       1.41878189      12.45825405
O        5.88021036       6.65152896       0.09721720
O        2.85489049       3.91028747       6.37477044
O        3.19522352       9.14303453       6.18070080
O        0.17016652       3.91028747       0.09703482
O        5.87994751       9.14303453      12.45843642
O        1.10150402       2.77454997       5.02139131
O        4.94861001       8.00729704       7.53407992
O        1.92355299       2.77454997      11.29912693
O        4.12656102       8.00729704       1.25634430
O        1.10142572       2.55416793       7.53377778
O        4.94868830       7.78691500       5.02169345
O        1.92363129       2.55416793       1.25604216
O        4.12648273       7.78691500      11.29942907
O        1.82050558       5.53561446       1.49513412
O        4.22960844       0.30286738      11.06033711
O        1.20455143       5.53561446       7.77286973
O        4.84556259       0.30286738       4.78260149
O        4.22988561       5.02599454       1.49509296
O        1.82022841      10.25874163      11.06037826
O        4.84528542       5.02599454       7.77282857
O        1.20482860      10.25874163       4.78264265
O        3.30370522       6.49518067       3.29045475
O        2.74640880       1.26243358       9.26501648
O        5.77146581       6.49518067       9.56819036
O        0.27864821       1.26243358       2.98728086
O        2.74668608       4.06614093       3.29025160
O        3.30342794       9.29888802       9.26521963
O        0.27837093       4.06614093       9.56798721
O        5.77174309       9.29888802       2.98748402
F        3.18998194       9.19239758       3.54686546
F        2.86013208       3.95965051       9.00860575
F        5.88518909       9.19239758       9.82460108
F        0.16492493       3.95965051       2.73087014
F        2.86037799       1.36903218       3.54666545
F        3.18973603       6.60177925       9.00880577
F        0.16467902       1.36903218       9.82440106
F        5.88543500       6.60177925       2.73107015
